Borane DF-BP86/def2-SVP                                                 
Freq      RBP86                                                       def2SVP/W06         
Number of atoms                            I                4
Info1-9                                    I   N=           9
          10          10           0           0           0         101
           6          18         402
Full Title                                 C   N=           2
Borane DF-BP86/def2-SVP 
Route                                      C   N=          16
#P BP86/def2SVP/W06 DenFit scf(xqc,MaxConventionalCycle=500)
 int(ultrafinegrid) gfinput gfoldprint iop(6/7=3) symmetry(l
oose) geom(check) guess(read) freq Temperature=393.15 Pressu
re=1.5      
Charge                                     I                0
Multiplicity                               I                1
Number of electrons                        I                8
Number of alpha electrons                  I                4
Number of beta electrons                   I                4
Number of basis functions                  I               29
Number of independent functions            I               29
Number of point charges in /Mol/           I                0
Number of translation vectors              I                0
Atomic numbers                             I   N=           4
           5           1           1           1
Nuclear charges                            R   N=           4
  5.00000000E+00  1.00000000E+00  1.00000000E+00  1.00000000E+00
Current cartesian coordinates              R   N=          12
 -7.34683971E-40  6.99038414E-49  0.00000000E+00 -1.77843832E-23  2.29441311E+00
  0.00000000E+00  1.98702004E+00 -1.14720655E+00 -0.00000000E+00 -1.98702004E+00
 -1.14720655E+00  0.00000000E+00
Number of symbols in /Mol/                 I                0
Redundant internal dimensions              I   N=           4
           7           3           3           1
Redundant internal coordinate indices      I   N=          28
           1           2           0           0           1           3
           0           0           1           4           0           0
           2           1           3           0           2           1
           4           0           3           1           4           0
           2           1           4           3
Redundant internal coordinates             R   N=           7
  2.29441311E+00  2.29441311E+00  2.29441311E+00  2.09439510E+00  2.09439510E+00
  2.09439510E+00  3.14159265E+00
ZRed-IntVec                                I   N=           7
           0           0           0           0           0           0
           0
ZRed-FPVec                                 R   N=           7
  0.00000000E+00  0.00000000E+00  0.00000000E+00  0.00000000E+00  0.00000000E+00
  0.00000000E+00  0.00000000E+00
ZRed-Constraint1                           R   N=           7
  2.29441311E+00  2.29441311E+00  2.29441311E+00  2.09439510E+00  2.09439510E+00
  2.09439511E+00  3.14159124E+00
ZRed-Constraint2                           R   N=           7
  1.92367312E+00  1.92367312E+00  1.92367312E+00  1.84561291E+00  1.84561291E+00
  1.84561291E+00 -1.95243253E+00
Force Field                                I                0
Atom Types                                 C   N=           4
                                                
Int Atom Types                             I   N=           4
           0           0           0           0
MM charges                                 R   N=           4
  0.00000000E+00  0.00000000E+00  0.00000000E+00  0.00000000E+00
Integer atomic weights                     I   N=           4
          11           1           1           1
Real atomic weights                        R   N=           4
  1.10093053E+01  1.00782504E+00  1.00782504E+00  1.00782504E+00
Atom fragment info                         I   N=           4
           0           0           0           0
Atom residue num                           I   N=           4
           0           0           0           0
Nuclear spins                              I   N=           4
           3           1           1           1
Nuclear ZEff                               R   N=           4
 -2.75000000E+00 -1.00000000E+00 -1.00000000E+00 -1.00000000E+00
Nuclear ZNuc                               R   N=           4
  5.00000000E+00  1.00000000E+00  1.00000000E+00  1.00000000E+00
Nuclear QMom                               R   N=           4
  4.05900000E+00  0.00000000E+00  0.00000000E+00  0.00000000E+00
Nuclear GFac                               R   N=           4
  2.68863700E+00  2.79284600E+00  2.79284600E+00  2.79284600E+00
MicOpt                                     I   N=           4
          -1          -1          -1          -1
Number of residues                         I                0
Number of secondary structures             I                0
SymInf integers                            I   N=          26
           2           4           1           1           1          -1
           1          -1          -1           1           1           1
           1          -1           0           0           0           0
           0           0           0           0           0           0
           0           0
RotTr to input orientation                 R   N=          12
 -1.00000000E+00  9.51481782E-10  0.00000000E+00  9.51481782E-10  1.00000000E+00
 -0.00000000E+00  0.00000000E+00  0.00000000E+00 -1.00000000E+00  0.00000000E+00
  1.24999999E-09 -1.25000014E-16
Number of contracted shells                I               15
Number of primitive shells                 I               27
Pure/Cartesian d shells                    I                0
Pure/Cartesian f shells                    I                0
Highest angular momentum                   I                2
Largest degree of contraction              I                5
Shell types                                I   N=          15
           0           0           0           1           1          -2
           0           0           1           0           0           1
           0           0           1
Number of primitives per shell             I   N=          15
           5           1           1           3           1           1
           3           1           1           3           1           1
           3           1           1
Shell to atom map                          I   N=          15
           1           1           1           1           1           1
           2           2           2           3           3           3
           4           4           4
Primitive exponents                        R   N=          27
  8.39318301E+02  1.26264648E+02  2.86206008E+01  7.87937227E+00  2.40888572E+00
  2.51051090E-01  8.36488661E-02  6.03322236E+00  1.24991579E+00  3.38716764E-01
  9.64156324E-02  5.00000000E-01  1.30107010E+01  1.96225720E+00  4.44537960E-01
  1.21949620E-01  8.00000000E-01  1.30107010E+01  1.96225720E+00  4.44537960E-01
  1.21949620E-01  8.00000000E-01  1.30107010E+01  1.96225720E+00  4.44537960E-01
  1.21949620E-01  8.00000000E-01
Contraction coefficients                   R   N=          27
 -5.62888360E-03 -4.18327946E-02 -1.84174881E-01 -4.68396550E-01 -4.44579309E-01
  1.00000000E+00  1.00000000E+00 -5.40325003E-02 -3.01940344E-01 -7.71707917E-01
  1.00000000E+00  1.00000000E+00  3.34854848E-02  2.34721871E-01  8.13770285E-01
  1.00000000E+00  1.00000000E+00  3.34854848E-02  2.34721871E-01  8.13770285E-01
  1.00000000E+00  1.00000000E+00  3.34854848E-02  2.34721871E-01  8.13770285E-01
  1.00000000E+00  1.00000000E+00
Coordinates of each shell                  R   N=          45
 -7.34683971E-40  6.99038414E-49  0.00000000E+00 -7.34683971E-40  6.99038414E-49
  0.00000000E+00 -7.34683971E-40  6.99038414E-49  0.00000000E+00 -7.34683971E-40
  6.99038414E-49  0.00000000E+00 -7.34683971E-40  6.99038414E-49  0.00000000E+00
 -7.34683971E-40  6.99038414E-49  0.00000000E+00 -1.77843832E-23  2.29441311E+00
  0.00000000E+00 -1.77843832E-23  2.29441311E+00  0.00000000E+00 -1.77843832E-23
  2.29441311E+00  0.00000000E+00  1.98702004E+00 -1.14720655E+00  0.00000000E+00
  1.98702004E+00 -1.14720655E+00  0.00000000E+00  1.98702004E+00 -1.14720655E+00
  0.00000000E+00 -1.98702004E+00 -1.14720655E+00  0.00000000E+00 -1.98702004E+00
 -1.14720655E+00  0.00000000E+00 -1.98702004E+00 -1.14720655E+00  0.00000000E+00
Density Number of contracted shells        I               30
Density Number of primitive shells         I               48
Density Pure/Cartesian d shells            I                0
Density Pure/Cartesian f shells            I                0
Density Highest angular momentum           I                4
Density Largest degree of contraction      I                7
Density Shell types                        I   N=          30
           0           0           0           0           0           0
           1           1           1           1          -2          -2
          -2          -3          -4           0           0           0
           1          -2           0           0           0           1
          -2           0           0           0           1          -2
Density Number of primitives per shell     I   N=          30
           7           1           1           1           1           1
           2           1           1           1           2           1
           1           2           1           3           1           1
           2           1           3           1           1           2
           1           3           1           1           2           1
Density Shell to atom map                  I   N=          30
           1           1           1           1           1           1
           1           1           1           1           1           1
           1           1           1           2           2           2
           2           2           3           3           3           3
           3           4           4           4           4           4
Density Primitive exponents                R   N=          48
  1.32220167E+03  4.58237065E+02  1.68002364E+02  6.49577690E+01  2.63871856E+01
  1.12108611E+01  4.95544600E+00  2.26528250E+00  1.06380860E+00  5.09518700E-01
  2.46985900E-01  1.20208900E-01  9.35607360E+00  3.97431310E+00  1.66451470E+00
  6.91303500E-01  2.86313500E-01  2.11203130E+00  7.78076900E-01  3.27710100E-01
  1.44946500E-01  1.05827180E+00  4.01000000E-01  6.51430000E-01  1.56752927E+01
  3.60635780E+00  1.20800160E+00  4.72679400E-01  2.01810000E-01  2.02813650E+00
  5.35873000E-01  2.21651240E+00  1.56752927E+01  3.60635780E+00  1.20800160E+00
  4.72679400E-01  2.01810000E-01  2.02813650E+00  5.35873000E-01  2.21651240E+00
  1.56752927E+01  3.60635780E+00  1.20800160E+00  4.72679400E-01  2.01810000E-01
  2.02813650E+00  5.35873000E-01  2.21651240E+00
Density Contraction coefficients           R   N=          48
  1.53384509E-03  5.60201807E-03  3.18681252E-02  1.19551563E-01  3.17408619E-01
  4.16304341E-01  1.47651804E-01 -1.00000000E+00  1.00000000E+00  1.00000000E+00
  1.00000000E+00  1.00000000E+00 -4.40207096E-01 -5.91824781E-01  1.00000000E+00
 -1.00000000E+00  1.00000000E+00  2.59331761E-01  7.59198463E-01  1.00000000E+00
  1.00000000E+00  6.30976335E-01  4.23437776E-01 -1.00000000E+00  3.26115897E-02
  2.29804684E-01  7.57208324E-01  1.00000000E+00  1.00000000E+00  3.61836199E-01
  7.03930309E-01  1.00000000E+00  3.26115897E-02  2.29804684E-01  7.57208324E-01
  1.00000000E+00  1.00000000E+00  3.61836199E-01  7.03930309E-01  1.00000000E+00
  3.26115897E-02  2.29804684E-01  7.57208324E-01  1.00000000E+00  1.00000000E+00
  3.61836199E-01  7.03930309E-01  1.00000000E+00
Density Coordinates of each shell          R   N=          90
 -7.34683971E-40  6.99038414E-49  0.00000000E+00 -7.34683971E-40  6.99038414E-49
  0.00000000E+00 -7.34683971E-40  6.99038414E-49  0.00000000E+00 -7.34683971E-40
  6.99038414E-49  0.00000000E+00 -7.34683971E-40  6.99038414E-49  0.00000000E+00
 -7.34683971E-40  6.99038414E-49  0.00000000E+00 -7.34683971E-40  6.99038414E-49
  0.00000000E+00 -7.34683971E-40  6.99038414E-49  0.00000000E+00 -7.34683971E-40
  6.99038414E-49  0.00000000E+00 -7.34683971E-40  6.99038414E-49  0.00000000E+00
 -7.34683971E-40  6.99038414E-49  0.00000000E+00 -7.34683971E-40  6.99038414E-49
  0.00000000E+00 -7.34683971E-40  6.99038414E-49  0.00000000E+00 -7.34683971E-40
  6.99038414E-49  0.00000000E+00 -7.34683971E-40  6.99038414E-49  0.00000000E+00
 -1.77843832E-23  2.29441311E+00  0.00000000E+00 -1.77843832E-23  2.29441311E+00
  0.00000000E+00 -1.77843832E-23  2.29441311E+00  0.00000000E+00 -1.77843832E-23
  2.29441311E+00  0.00000000E+00 -1.77843832E-23  2.29441311E+00  0.00000000E+00
  1.98702004E+00 -1.14720655E+00  0.00000000E+00  1.98702004E+00 -1.14720655E+00
  0.00000000E+00  1.98702004E+00 -1.14720655E+00  0.00000000E+00  1.98702004E+00
 -1.14720655E+00  0.00000000E+00  1.98702004E+00 -1.14720655E+00  0.00000000E+00
 -1.98702004E+00 -1.14720655E+00  0.00000000E+00 -1.98702004E+00 -1.14720655E+00
  0.00000000E+00 -1.98702004E+00 -1.14720655E+00  0.00000000E+00 -1.98702004E+00
 -1.14720655E+00  0.00000000E+00 -1.98702004E+00 -1.14720655E+00  0.00000000E+00
Constraint Structure                       R   N=          12
 -7.34683971E-40  6.99038414E-49  0.00000000E+00 -1.77843832E-23  2.29441311E+00
  0.00000000E+00  1.98702004E+00 -1.14720655E+00 -0.00000000E+00 -1.98702004E+00
 -1.14720655E+00  0.00000000E+00
Num ILSW                                   I              100
ILSW                                       I   N=         100
           0           0           0           0           2           0
           0           0           0           0         404          -1
           5           0           0           0           2           0
           0           0           0           0           1           0
           1           0           0           0           0           0
           0           0      100000           0          -1           0
           0           0           0           0           0           0
           0           0           0           1           0           0
           0           0           1           0           0           0
           0           0           4          41           0           0
           0           0           0           0           0           0
           0           0           0           4           0           0
           0           0           0           0           0           0
           0           0           0           0           0           0
           0           0           0           0           0           0
           0           0           0           0           0           0
           0           0           0           0
Num RLSW                                   I               41
RLSW                                       R   N=          41
  1.00000000E+00  1.00000000E+00  1.00000000E+00  1.00000000E+00  0.00000000E+00
  0.00000000E+00  0.00000000E+00  1.00000000E+00  0.00000000E+00  0.00000000E+00
  0.00000000E+00  0.00000000E+00  1.00000000E+00  0.00000000E+00  0.00000000E+00
  0.00000000E+00  0.00000000E+00  1.00000000E+00  0.00000000E+00  0.00000000E+00
  0.00000000E+00  0.00000000E+00  1.00000000E+00  0.00000000E+00  0.00000000E+00
  0.00000000E+00  0.00000000E+00  1.00000000E+00  0.00000000E+00  0.00000000E+00
  0.00000000E+00  0.00000000E+00  1.00000000E+00  0.00000000E+00  0.00000000E+00
  0.00000000E+00  0.00000000E+00  0.00000000E+00  1.00000000E+00  1.00000000E+00
  0.00000000E+00
ECP-MxAtEC                                 I           250000
ECP-MaxLECP                                I               10
ECP-MaxAtL                                 I          2250000
ECP-MxTECP                                 I         11250000
ECP-LenNCZ                                 I                0
ECP-KFirst                                 I   N=          40
           0           0           0           0           0           0
           0           0           0           0           0           0
           0           0           0           0           0           0
           0           0           0           0           0           0
           0           0           0           0           0           0
           0           0           0           0           0           0
           0           0           0           0
ECP-KLast                                  I   N=          40
           0           0           0           0           0           0
           0           0           0           0           0           0
           0           0           0           0           0           0
           0           0           0           0           0           0
           0           0           0           0           0           0
           0           0           0           0           0           0
           0           0           0           0
ECP-LMax                                   I   N=           4
           0           0           0           0
ECP-LPSkip                                 I   N=           4
           1           1           1           1
ECP-RNFroz                                 R   N=           4
  0.00000000E+00  0.00000000E+00  0.00000000E+00  0.00000000E+00
ECP-NLP                                    I                0
ECP-CLP1                                   R      0.000000000000000E+00
ECP-CLP2                                   R      0.000000000000000E+00
ECP-ZLP                                    R      0.000000000000000E+00
MxBond                                     I                3
NBond                                      I   N=           4
           3           1           1           1
IBond                                      I   N=          12
           2           3           4           1           0           0
           1           0           0           1           0           0
RBond                                      R   N=          12
  2.00000000E+00  2.00000000E+00  2.00000000E+00  2.00000000E+00  0.00000000E+00
  0.00000000E+00  2.00000000E+00  0.00000000E+00  0.00000000E+00  2.00000000E+00
  0.00000000E+00  0.00000000E+00
Virial Ratio                               R      2.017544165768476E+00
SCF Energy                                 R     -2.657382205538337E+01
Total Energy                               R     -2.657382205538337E+01
RMS Force                                  R      1.161683192356345E-07
RMS Density                                R      1.735178212485554E-10
Job Status                                 I                1
Nuclear derivative order                   I                2
External E-field                           R   N=          35
  0.00000000E+00  0.00000000E+00  0.00000000E+00  0.00000000E+00  0.00000000E+00
  0.00000000E+00  0.00000000E+00  0.00000000E+00  0.00000000E+00  0.00000000E+00
  0.00000000E+00  0.00000000E+00  0.00000000E+00  0.00000000E+00  0.00000000E+00
  0.00000000E+00  0.00000000E+00  0.00000000E+00  0.00000000E+00  0.00000000E+00
  0.00000000E+00  0.00000000E+00  0.00000000E+00  0.00000000E+00  0.00000000E+00
  0.00000000E+00  0.00000000E+00  0.00000000E+00  0.00000000E+00  0.00000000E+00
  0.00000000E+00  0.00000000E+00  0.00000000E+00  0.00000000E+00  0.00000000E+00
IOpCl                                      I                0
IROHF                                      I                0
Alpha Orbital Energies                     R   N=          29
 -6.55993306E+00 -4.57710619E-01 -3.10533990E-01 -3.10533990E-01 -1.10734888E-01
  1.19403952E-01  1.19403952E-01  1.22688779E-01  1.83054640E-01  2.33192867E-01
  2.33192867E-01  2.98259243E-01  6.10905495E-01  6.10905495E-01  6.19455920E-01
  8.67722998E-01  8.67722998E-01  1.22754309E+00  1.22754309E+00  1.24350323E+00
  1.36400555E+00  1.57131363E+00  1.77012508E+00  1.77012508E+00  1.97258981E+00
  1.97258981E+00  2.36216018E+00  2.50497853E+00  2.50497853E+00
Alpha MO coefficients                      R   N=         841
  9.89239315E-01 -4.23333245E-02  2.28314844E-02  0.00000000E+00  6.35027132E-16
  0.00000000E+00  0.00000000E+00  9.87901936E-16  0.00000000E+00  2.43862034E-03
  0.00000000E+00  0.00000000E+00 -5.67376286E-16  0.00000000E+00  4.20826632E-03
 -4.32365614E-03  0.00000000E+00 -6.16118630E-04  0.00000000E+00  4.20826632E-03
 -4.32365614E-03 -5.33574386E-04  3.08059315E-04  0.00000000E+00  4.20826632E-03
 -4.32365614E-03  5.33574386E-04  3.08059315E-04  0.00000000E+00  2.42304613E-01
  4.85919804E-01  1.63017796E-01  0.00000000E+00  3.11098201E-16  0.00000000E+00
  0.00000000E+00  2.10614133E-15  0.00000000E+00 -2.53642067E-03  0.00000000E+00
  0.00000000E+00  1.04707313E-15  0.00000000E+00  2.07065871E-01  5.14002222E-02
  0.00000000E+00 -1.90579139E-02  0.00000000E+00  2.07065871E-01  5.14002222E-02
 -1.65046376E-02  9.52895697E-03  0.00000000E+00  2.07065871E-01  5.14002222E-02
  1.65046376E-02  9.52895697E-03  0.00000000E+00  0.00000000E+00  0.00000000E+00
  0.00000000E+00  4.23834125E-01  0.00000000E+00  0.00000000E+00 -1.32543686E-01
  0.00000000E+00  0.00000000E+00  0.00000000E+00  0.00000000E+00  0.00000000E+00
  0.00000000E+00  1.78935254E-02  0.00000000E+00  0.00000000E+00 -8.13261350E-03
  0.00000000E+00  0.00000000E+00 -3.18882742E-01 -1.52782326E-01  5.58940512E-03
 -7.92241114E-03  0.00000000E+00  3.18882742E-01  1.52782326E-01  5.58940512E-03
  7.92241114E-03  0.00000000E+00  4.45209946E-16  1.83680323E-15 -1.51863326E-15
  0.00000000E+00  4.23834125E-01  0.00000000E+00  0.00000000E+00 -1.32543686E-01
  0.00000000E+00 -3.52350128E-17  0.00000000E+00  0.00000000E+00  1.78935254E-02
  0.00000000E+00 -3.68214074E-01 -1.76417834E-01  0.00000000E+00  1.01634113E-02
  0.00000000E+00  1.84107037E-01  8.82089172E-02 -7.92241114E-03 -3.55860729E-03
  0.00000000E+00  1.84107037E-01  8.82089172E-02  7.92241114E-03 -3.55860729E-03
  0.00000000E+00  0.00000000E+00  0.00000000E+00  0.00000000E+00  0.00000000E+00
  0.00000000E+00  5.83095748E-01  0.00000000E+00  0.00000000E+00 -5.37383672E-01
  0.00000000E+00  0.00000000E+00  2.11099995E-16  0.00000000E+00  0.00000000E+00
  0.00000000E+00  0.00000000E+00  0.00000000E+00  0.00000000E+00 -2.17088649E-02
  0.00000000E+00  0.00000000E+00  0.00000000E+00  0.00000000E+00 -2.17088649E-02
  0.00000000E+00  0.00000000E+00  0.00000000E+00  0.00000000E+00 -2.17088649E-02
  3.92069180E-13  1.57388225E-12  5.24627738E-12  0.00000000E+00  3.38712458E-01
  0.00000000E+00  0.00000000E+00 -2.07885432E+00  0.00000000E+00  6.76252800E-14
  0.00000000E+00  0.00000000E+00 -5.52256940E-02  0.00000000E+00  1.63282996E-01
  2.22300356E+00  0.00000000E+00  1.27192234E-02  0.00000000E+00 -8.16414980E-02
 -1.11150178E+00 -2.02701168E-02 -2.23896488E-02  0.00000000E+00 -8.16414980E-02
 -1.11150178E+00  2.02701168E-02 -2.23896488E-02  0.00000000E+00  0.00000000E+00
  0.00000000E+00  0.00000000E+00 -3.38712458E-01  0.00000000E+00  0.00000000E+00
  2.07885432E+00  0.00000000E+00  0.00000000E+00  0.00000000E+00  0.00000000E+00
  0.00000000E+00  0.00000000E+00  5.52256940E-02  0.00000000E+00  0.00000000E+00
  3.40926062E-02  0.00000000E+00  0.00000000E+00 -1.41407223E-01 -1.92517756E+00
 -1.01626604E-03  2.02701168E-02  0.00000000E+00  1.41407223E-01  1.92517756E+00
 -1.01626604E-03 -2.02701168E-02  0.00000000E+00  2.22747333E-01  9.25382514E-01
  2.61565273E+00  0.00000000E+00 -6.37635243E-13  0.00000000E+00  0.00000000E+00
  3.81814606E-12  0.00000000E+00  3.72104112E-02  0.00000000E+00  0.00000000E+00
  1.05071016E-13  0.00000000E+00 -1.17600255E-01 -1.44818031E+00  0.00000000E+00
 -1.76034714E-02  0.00000000E+00 -1.17600255E-01 -1.44818031E+00 -1.52450534E-02
  8.80173569E-03  0.00000000E+00 -1.17600255E-01 -1.44818031E+00  1.52450534E-02
  8.80173569E-03  0.00000000E+00 -1.69246440E-01 -1.25090676E+00  3.52687831E+00
  0.00000000E+00 -4.89912055E-14  0.00000000E+00  0.00000000E+00  1.84860034E-13
  0.00000000E+00  4.23746502E-02  0.00000000E+00  0.00000000E+00  1.61575613E-15
  0.00000000E+00 -1.80442056E-01 -8.50076464E-01  0.00000000E+00  9.99983824E-03
  0.00000000E+00 -1.80442056E-01 -8.50076464E-01  8.66011395E-03 -4.99991912E-03
  0.00000000E+00 -1.80442056E-01 -8.50076464E-01 -8.66011395E-03 -4.99991912E-03
  0.00000000E+00  2.92636512E-16 -2.09326444E-15  3.70225775E-14  0.00000000E+00
  7.88157261E-01  0.00000000E+00  0.00000000E+00  1.09474975E+00  0.00000000E+00
  9.47584222E-16  0.00000000E+00  0.00000000E+00  1.45238722E-02  0.00000000E+00
 -2.63047544E-01  1.19290693E-01  0.00000000E+00  3.99051394E-02  0.00000000E+00
  1.31523772E-01 -5.96453467E-02 -1.62256844E-02  1.18014296E-02  0.00000000E+00
  1.31523772E-01 -5.96453467E-02  1.62256844E-02  1.18014296E-02  0.00000000E+00
  0.00000000E+00  0.00000000E+00  0.00000000E+00  7.88157261E-01  0.00000000E+00
  0.00000000E+00  1.09474975E+00  0.00000000E+00  0.00000000E+00  0.00000000E+00
  0.00000000E+00  0.00000000E+00  0.00000000E+00  1.45238722E-02  0.00000000E+00
  0.00000000E+00  2.43352631E-03  0.00000000E+00  0.00000000E+00 -2.27805855E-01
  1.03308771E-01  3.05372361E-02 -1.62256844E-02  0.00000000E+00  2.27805855E-01
 -1.03308771E-01  3.05372361E-02  1.62256844E-02  0.00000000E+00  0.00000000E+00
  0.00000000E+00  0.00000000E+00  0.00000000E+00  0.00000000E+00  1.02711710E+00
  0.00000000E+00  0.00000000E+00  1.06641592E+00  0.00000000E+00  0.00000000E+00
 -9.80037109E-17  0.00000000E+00  0.00000000E+00  0.00000000E+00  0.00000000E+00
  0.00000000E+00  0.00000000E+00 -1.70084050E-02  0.00000000E+00  0.00000000E+00
  0.00000000E+00  0.00000000E+00 -1.70084050E-02  0.00000000E+00  0.00000000E+00
  0.00000000E+00  0.00000000E+00 -1.70084050E-02  0.00000000E+00  0.00000000E+00
  0.00000000E+00 -6.28588767E-01  0.00000000E+00  0.00000000E+00 -1.71705966E+00
  0.00000000E+00  0.00000000E+00  0.00000000E+00  0.00000000E+00  0.00000000E+00
  0.00000000E+00  3.52874928E-01  0.00000000E+00  0.00000000E+00  5.39849317E-02
  0.00000000E+00  0.00000000E+00 -7.74107832E-01  2.02627394E+00 -7.36127564E-02
  7.36685595E-02  0.00000000E+00  7.74107832E-01 -2.02627394E+00 -7.36127564E-02
 -7.36685595E-02  0.00000000E+00 -1.68416166E-13 -7.41067290E-13  3.74636265E-12
  0.00000000E+00 -6.28588767E-01  0.00000000E+00  0.00000000E+00 -1.71705966E+00
  0.00000000E+00 -2.55331708E-13  0.00000000E+00  0.00000000E+00  3.52874928E-01
  0.00000000E+00 -8.93862731E-01  2.33973961E+00  0.00000000E+00 -1.16145319E-01
  0.00000000E+00  4.46931365E-01 -1.16986981E+00  7.36685595E-02  1.14523690E-02
  0.00000000E+00  4.46931365E-01 -1.16986981E+00 -7.36685595E-02  1.14523690E-02
  0.00000000E+00 -1.71525585E-01 -7.60207036E-01  3.89372983E+00  0.00000000E+00
  6.09924284E-13  0.00000000E+00  0.00000000E+00  1.72602545E-12  0.00000000E+00
 -2.60142570E-01  0.00000000E+00  0.00000000E+00 -3.51734684E-13  0.00000000E+00
  7.36139961E-01 -1.89507665E+00  0.00000000E+00  7.37029289E-02  0.00000000E+00
  7.36139961E-01 -1.89507665E+00  6.38286087E-02 -3.68514644E-02  0.00000000E+00
  7.36139961E-01 -1.89507665E+00 -6.38286087E-02 -3.68514644E-02  0.00000000E+00
  0.00000000E+00  0.00000000E+00  0.00000000E+00  0.00000000E+00  0.00000000E+00
  0.00000000E+00  0.00000000E+00  0.00000000E+00  0.00000000E+00  0.00000000E+00
  7.82886305E-01  0.00000000E+00  0.00000000E+00  0.00000000E+00  0.00000000E+00
  0.00000000E+00  0.00000000E+00  0.00000000E+00  0.00000000E+00  0.00000000E+00
  0.00000000E+00  0.00000000E+00  0.00000000E+00  2.55995219E-01  0.00000000E+00
  0.00000000E+00  0.00000000E+00  0.00000000E+00 -2.55995219E-01  0.00000000E+00
  0.00000000E+00  0.00000000E+00  0.00000000E+00  0.00000000E+00 -9.95806838E-16
  0.00000000E+00  0.00000000E+00  1.95431093E-16  0.00000000E+00  0.00000000E+00
  7.82886305E-01  0.00000000E+00  0.00000000E+00  0.00000000E+00  0.00000000E+00
  0.00000000E+00  0.00000000E+00  2.95597818E-01  0.00000000E+00  0.00000000E+00
  0.00000000E+00  0.00000000E+00 -1.47798909E-01  0.00000000E+00  0.00000000E+00
  0.00000000E+00  0.00000000E+00 -1.47798909E-01 -2.45751397E-15 -9.26601763E-15
  1.83919776E-14  0.00000000E+00  2.97215730E-01  0.00000000E+00  0.00000000E+00
 -4.83754517E-01  0.00000000E+00  2.09872899E-14  0.00000000E+00  0.00000000E+00
  7.23018397E-01  0.00000000E+00  7.38258346E-01 -4.48862324E-02  0.00000000E+00
  1.79381752E-01  0.00000000E+00 -3.69129173E-01  2.24431162E-02  8.70276769E-02
  3.30118110E-01  0.00000000E+00 -3.69129173E-01  2.24431162E-02 -8.70276769E-02
  3.30118110E-01  0.00000000E+00  0.00000000E+00  0.00000000E+00  0.00000000E+00
  2.97215730E-01  0.00000000E+00  0.00000000E+00 -4.83754517E-01  0.00000000E+00
  0.00000000E+00  0.00000000E+00  0.00000000E+00  0.00000000E+00  0.00000000E+00
  7.23018397E-01  0.00000000E+00  0.00000000E+00  3.80363563E-01  0.00000000E+00
  0.00000000E+00  6.39350482E-01 -3.88726176E-02  2.29627205E-01  8.70276769E-02
  0.00000000E+00 -6.39350482E-01  3.88726176E-02  2.29627205E-01 -8.70276769E-02
  0.00000000E+00 -5.38212284E-02 -1.01364300E-01 -2.81424518E-01  0.00000000E+00
 -6.30999326E-15  0.00000000E+00  0.00000000E+00  1.12865754E-14  0.00000000E+00
  1.03861044E+00  0.00000000E+00  0.00000000E+00 -1.41582524E-14  0.00000000E+00
  4.71941235E-01 -8.38221140E-02  0.00000000E+00  9.00332164E-02  0.00000000E+00
  4.71941235E-01 -8.38221140E-02  7.79710526E-02 -4.50166082E-02  0.00000000E+00
  4.71941235E-01 -8.38221140E-02 -7.79710526E-02 -4.50166082E-02  0.00000000E+00
  0.00000000E+00  0.00000000E+00  0.00000000E+00 -2.23367411E-15  0.00000000E+00
  0.00000000E+00 -7.48324322E-15  0.00000000E+00  0.00000000E+00  0.00000000E+00
  0.00000000E+00  0.00000000E+00  0.00000000E+00  1.02689636E-15  0.00000000E+00
  0.00000000E+00  5.81201134E-01  0.00000000E+00  0.00000000E+00 -6.96846961E-16