Borane DF-BP86/def2-SVP                                                 
FOpt      RBP86                                                       def2SVP/W06         
Number of atoms                            I                4
Info1-9                                    I   N=           9
          18          17           0           0           0         111
           2          18         402
Full Title                                 C   N=           2
Borane DF-BP86/def2-SVP 
Route                                      C   N=          15
#P BP86/def2SVP/W06 DenFit opt(MaxCycle=100 MaxStep=10 VeryT
ight NoEigenTest) scf(xqc MaxConventionalCycle = 500) int(ul
trafinegrid) gfinput gfoldprint iop(6/7=3) symmetry(loose)  
Charge                                     I                0
Multiplicity                               I                1
Number of electrons                        I                8
Number of alpha electrons                  I                4
Number of beta electrons                   I                4
Number of basis functions                  I               29
Number of independent functions            I               29
Number of point charges in /Mol/           I                0
Number of translation vectors              I                0
Atomic numbers                             I   N=           4
           5           1           1           1
Nuclear charges                            R   N=           4
  5.00000000E+00  1.00000000E+00  1.00000000E+00  1.00000000E+00
Current cartesian coordinates              R   N=          12
  0.00000000E+00  0.00000000E+00 -3.50470070E-07  0.00000000E+00  2.29441311E+00
  5.84116783E-07 -1.98702004E+00 -1.14720655E+00  5.84116783E-07  1.98702004E+00
 -1.14720655E+00  5.84116783E-07
Number of symbols in /Mol/                 I                0
Redundant internal dimensions              I   N=           4
           7           3           3           1
Redundant internal coordinate indices      I   N=          28
           1           2           0           0           1           3
           0           0           1           4           0           0
           2           1           3           0           2           1
           4           0           3           1           4           0
           2           1           4           3
Redundant internal coordinates             R   N=           7
  2.29441311E+00  2.29441311E+00  2.29441311E+00  2.09439510E+00  2.09439510E+00
  2.09439510E+00  3.14159124E+00
ZRed-IntVec                                I   N=           7
           0           0           0           0           0           0
           0
ZRed-FPVec                                 R   N=           7
  0.00000000E+00  0.00000000E+00  0.00000000E+00  0.00000000E+00  0.00000000E+00
  0.00000000E+00  0.00000000E+00
ZRed-Constraint1                           R   N=           7
  1.92367312E+00  1.92367312E+00  1.92367312E+00  1.84561291E+00  1.84561291E+00
  1.84561291E+00 -1.95243253E+00
ZRed-Constraint2                           R   N=           7
  0.00000000E+00  0.00000000E+00  0.00000000E+00  0.00000000E+00  0.00000000E+00
  0.00000000E+00  0.00000000E+00
Force Field                                I                0
Atom Types                                 C   N=           4
                                                
Int Atom Types                             I   N=           4
           0           0           0           0
MM charges                                 R   N=           4
  0.00000000E+00  0.00000000E+00  0.00000000E+00  0.00000000E+00
Integer atomic weights                     I   N=           4
          11           1           1           1
Real atomic weights                        R   N=           4
  1.10093053E+01  1.00782504E+00  1.00782504E+00  1.00782504E+00
Atom fragment info                         I   N=           4
           0           0           0           0
Atom residue num                           I   N=           4
           0           0           0           0
Nuclear spins                              I   N=           4
           3           1           1           1
Nuclear ZEff                               R   N=           4
 -2.75000000E+00 -1.00000000E+00 -1.00000000E+00 -1.00000000E+00
Nuclear ZNuc                               R   N=           4
  5.00000000E+00  1.00000000E+00  1.00000000E+00  1.00000000E+00
Nuclear QMom                               R   N=           4
  4.05900000E+00  0.00000000E+00  0.00000000E+00  0.00000000E+00
Nuclear GFac                               R   N=           4
  2.68863700E+00  2.79284600E+00  2.79284600E+00  2.79284600E+00
MicOpt                                     I   N=           4
          -1          -1          -1          -1
Number of residues                         I                0
Number of secondary structures             I                0
SymInf integers                            I   N=          26
           2           2           1           1           1          -1
           1           1           0           0           0           0
           0           0           0           0           0           0
           0           0           0           0           0           0
           0           0
RotTr to input orientation                 R   N=          12
  2.87899593E-10 -1.00000000E+00 -0.00000000E+00 -1.00000000E+00 -2.87899593E-10
  0.00000000E+00 -0.00000000E+00 -0.00000000E+00 -1.00000000E+00 -2.36215020E-10
  6.66133815E-16  4.31342980E-01
Number of contracted shells                I               15
Number of primitive shells                 I               27
Pure/Cartesian d shells                    I                0
Pure/Cartesian f shells                    I                0
Highest angular momentum                   I                2
Largest degree of contraction              I                5
Shell types                                I   N=          15
           0           0           0           1           1          -2
           0           0           1           0           0           1
           0           0           1
Number of primitives per shell             I   N=          15
           5           1           1           3           1           1
           3           1           1           3           1           1
           3           1           1
Shell to atom map                          I   N=          15
           1           1           1           1           1           1
           2           2           2           3           3           3
           4           4           4
Primitive exponents                        R   N=          27
  8.39318301E+02  1.26264648E+02  2.86206008E+01  7.87937227E+00  2.40888572E+00
  2.51051090E-01  8.36488661E-02  6.03322236E+00  1.24991579E+00  3.38716764E-01
  9.64156324E-02  5.00000000E-01  1.30107010E+01  1.96225720E+00  4.44537960E-01
  1.21949620E-01  8.00000000E-01  1.30107010E+01  1.96225720E+00  4.44537960E-01
  1.21949620E-01  8.00000000E-01  1.30107010E+01  1.96225720E+00  4.44537960E-01
  1.21949620E-01  8.00000000E-01
Contraction coefficients                   R   N=          27
 -5.62888360E-03 -4.18327946E-02 -1.84174881E-01 -4.68396550E-01 -4.44579309E-01
  1.00000000E+00  1.00000000E+00 -5.40325003E-02 -3.01940344E-01 -7.71707917E-01
  1.00000000E+00  1.00000000E+00  3.34854848E-02  2.34721871E-01  8.13770285E-01
  1.00000000E+00  1.00000000E+00  3.34854848E-02  2.34721871E-01  8.13770285E-01
  1.00000000E+00  1.00000000E+00  3.34854848E-02  2.34721871E-01  8.13770285E-01
  1.00000000E+00  1.00000000E+00
Coordinates of each shell                  R   N=          45
  0.00000000E+00  0.00000000E+00 -3.50470070E-07  0.00000000E+00  0.00000000E+00
 -3.50470070E-07  0.00000000E+00  0.00000000E+00 -3.50470070E-07  0.00000000E+00
  0.00000000E+00 -3.50470070E-07  0.00000000E+00  0.00000000E+00 -3.50470070E-07
  0.00000000E+00  0.00000000E+00 -3.50470070E-07  0.00000000E+00  2.29441311E+00
  5.84116783E-07  0.00000000E+00  2.29441311E+00  5.84116783E-07  0.00000000E+00
  2.29441311E+00  5.84116783E-07 -1.98702004E+00 -1.14720655E+00  5.84116783E-07
 -1.98702004E+00 -1.14720655E+00  5.84116783E-07 -1.98702004E+00 -1.14720655E+00
  5.84116783E-07  1.98702004E+00 -1.14720655E+00  5.84116783E-07  1.98702004E+00
 -1.14720655E+00  5.84116783E-07  1.98702004E+00 -1.14720655E+00  5.84116783E-07
Density Number of contracted shells        I               30
Density Number of primitive shells         I               48
Density Pure/Cartesian d shells            I                0
Density Pure/Cartesian f shells            I                0
Density Highest angular momentum           I                4
Density Largest degree of contraction      I                7
Density Shell types                        I   N=          30
           0           0           0           0           0           0
           1           1           1           1          -2          -2
          -2          -3          -4           0           0           0
           1          -2           0           0           0           1
          -2           0           0           0           1          -2
Density Number of primitives per shell     I   N=          30
           7           1           1           1           1           1
           2           1           1           1           2           1
           1           2           1           3           1           1
           2           1           3           1           1           2
           1           3           1           1           2           1
Density Shell to atom map                  I   N=          30
           1           1           1           1           1           1
           1           1           1           1           1           1
           1           1           1           2           2           2
           2           2           3           3           3           3
           3           4           4           4           4           4
Density Primitive exponents                R   N=          48
  1.32220167E+03  4.58237065E+02  1.68002364E+02  6.49577690E+01  2.63871856E+01
  1.12108611E+01  4.95544600E+00  2.26528250E+00  1.06380860E+00  5.09518700E-01
  2.46985900E-01  1.20208900E-01  9.35607360E+00  3.97431310E+00  1.66451470E+00
  6.91303500E-01  2.86313500E-01  2.11203130E+00  7.78076900E-01  3.27710100E-01
  1.44946500E-01  1.05827180E+00  4.01000000E-01  6.51430000E-01  1.56752927E+01
  3.60635780E+00  1.20800160E+00  4.72679400E-01  2.01810000E-01  2.02813650E+00
  5.35873000E-01  2.21651240E+00  1.56752927E+01  3.60635780E+00  1.20800160E+00
  4.72679400E-01  2.01810000E-01  2.02813650E+00  5.35873000E-01  2.21651240E+00
  1.56752927E+01  3.60635780E+00  1.20800160E+00  4.72679400E-01  2.01810000E-01
  2.02813650E+00  5.35873000E-01  2.21651240E+00
Density Contraction coefficients           R   N=          48
  1.53384509E-03  5.60201807E-03  3.18681252E-02  1.19551563E-01  3.17408619E-01
  4.16304341E-01  1.47651804E-01 -1.00000000E+00  1.00000000E+00  1.00000000E+00
  1.00000000E+00  1.00000000E+00 -4.40207096E-01 -5.91824781E-01  1.00000000E+00
 -1.00000000E+00  1.00000000E+00  2.59331761E-01  7.59198463E-01  1.00000000E+00
  1.00000000E+00  6.30976335E-01  4.23437776E-01 -1.00000000E+00  3.26115897E-02
  2.29804684E-01  7.57208324E-01  1.00000000E+00  1.00000000E+00  3.61836199E-01
  7.03930309E-01  1.00000000E+00  3.26115897E-02  2.29804684E-01  7.57208324E-01
  1.00000000E+00  1.00000000E+00  3.61836199E-01  7.03930309E-01  1.00000000E+00
  3.26115897E-02  2.29804684E-01  7.57208324E-01  1.00000000E+00  1.00000000E+00
  3.61836199E-01  7.03930309E-01  1.00000000E+00
Density Coordinates of each shell          R   N=          90
  0.00000000E+00  0.00000000E+00 -3.50470070E-07  0.00000000E+00  0.00000000E+00
 -3.50470070E-07  0.00000000E+00  0.00000000E+00 -3.50470070E-07  0.00000000E+00
  0.00000000E+00 -3.50470070E-07  0.00000000E+00  0.00000000E+00 -3.50470070E-07
  0.00000000E+00  0.00000000E+00 -3.50470070E-07  0.00000000E+00  0.00000000E+00
 -3.50470070E-07  0.00000000E+00  0.00000000E+00 -3.50470070E-07  0.00000000E+00
  0.00000000E+00 -3.50470070E-07  0.00000000E+00  0.00000000E+00 -3.50470070E-07
  0.00000000E+00  0.00000000E+00 -3.50470070E-07  0.00000000E+00  0.00000000E+00
 -3.50470070E-07  0.00000000E+00  0.00000000E+00 -3.50470070E-07  0.00000000E+00
  0.00000000E+00 -3.50470070E-07  0.00000000E+00  0.00000000E+00 -3.50470070E-07
  0.00000000E+00  2.29441311E+00  5.84116783E-07  0.00000000E+00  2.29441311E+00
  5.84116783E-07  0.00000000E+00  2.29441311E+00  5.84116783E-07  0.00000000E+00
  2.29441311E+00  5.84116783E-07  0.00000000E+00  2.29441311E+00  5.84116783E-07
 -1.98702004E+00 -1.14720655E+00  5.84116783E-07 -1.98702004E+00 -1.14720655E+00
  5.84116783E-07 -1.98702004E+00 -1.14720655E+00  5.84116783E-07 -1.98702004E+00
 -1.14720655E+00  5.84116783E-07 -1.98702004E+00 -1.14720655E+00  5.84116783E-07
  1.98702004E+00 -1.14720655E+00  5.84116783E-07  1.98702004E+00 -1.14720655E+00
  5.84116783E-07  1.98702004E+00 -1.14720655E+00  5.84116783E-07  1.98702004E+00
 -1.14720655E+00  5.84116783E-07  1.98702004E+00 -1.14720655E+00  5.84116783E-07
Constraint Structure                       R   N=          12
  0.00000000E+00 -0.00000000E+00  2.81632736E-01  0.00000000E+00  1.77101279E+00
 -4.69387893E-01 -1.53374206E+00 -8.85506393E-01 -4.69387893E-01  1.53374206E+00
 -8.85506393E-01 -4.69387893E-01
Num ILSW                                   I              100
ILSW                                       I   N=         100
           0           0           0           0           2           0
           0           0           0           0         404          -1
           5           0           0           0           2           0
           0           0           0           0           1           0
           1           0           0           0           0           0
           0           0      100000           0          -1           0
           0           0           0           0           0           0
           0           0           0           1           0           0
           0           0           1           0           0           0
           0           0           4          41           0           0
           0           0           0           0           0           0
           0           0           0           4           0           0
           0           0           0           0           0           0
           0           0           0           0           0           0
           0           0           0           0           0           0
           0           0           0           0           0           0
           0           0           0           0
Num RLSW                                   I               41
RLSW                                       R   N=          41
  1.00000000E+00  1.00000000E+00  1.00000000E+00  1.00000000E+00  0.00000000E+00
  0.00000000E+00  0.00000000E+00  1.00000000E+00  0.00000000E+00  0.00000000E+00
  0.00000000E+00  0.00000000E+00  1.00000000E+00  0.00000000E+00  0.00000000E+00
  0.00000000E+00  0.00000000E+00  1.00000000E+00  0.00000000E+00  0.00000000E+00
  0.00000000E+00  0.00000000E+00  1.00000000E+00  0.00000000E+00  0.00000000E+00
  0.00000000E+00  0.00000000E+00  1.00000000E+00  0.00000000E+00  0.00000000E+00
  0.00000000E+00  0.00000000E+00  1.00000000E+00  0.00000000E+00  0.00000000E+00
  0.00000000E+00  0.00000000E+00  0.00000000E+00  1.00000000E+00  1.00000000E+00
  0.00000000E+00
ECP-MxAtEC                                 I           250000
ECP-MaxLECP                                I               10
ECP-MaxAtL                                 I          2250000
ECP-MxTECP                                 I         11250000
ECP-LenNCZ                                 I                0
ECP-KFirst                                 I   N=          40
           0           0           0           0           0           0
           0           0           0           0           0           0
           0           0           0           0           0           0
           0           0           0           0           0           0
           0           0           0           0           0           0
           0           0           0           0           0           0
           0           0           0           0
ECP-KLast                                  I   N=          40
           0           0           0           0           0           0
           0           0           0           0           0           0
           0           0           0           0           0           0
           0           0           0           0           0           0
           0           0           0           0           0           0
           0           0           0           0           0           0
           0           0           0           0
ECP-LMax                                   I   N=           4
           0           0           0           0
ECP-LPSkip                                 I   N=           4
           1           1           1           1
ECP-RNFroz                                 R   N=           4
  0.00000000E+00  0.00000000E+00  0.00000000E+00  0.00000000E+00
ECP-NLP                                    I                0
ECP-CLP1                                   R      0.000000000000000E+00
ECP-CLP2                                   R      0.000000000000000E+00
ECP-ZLP                                    R      0.000000000000000E+00
MxBond                                     I                3
NBond                                      I   N=           4
           3           1           1           1
IBond                                      I   N=          12
           2           3           4           1           0           0
           1           0           0           1           0           0
RBond                                      R   N=          12
  2.00000000E+00  2.00000000E+00  2.00000000E+00  2.00000000E+00  0.00000000E+00
  0.00000000E+00  2.00000000E+00  0.00000000E+00  0.00000000E+00  2.00000000E+00
  0.00000000E+00  0.00000000E+00
Virial Ratio                               R      2.017544165281364E+00
SCF Energy                                 R     -2.657382205540398E+01
Total Energy                               R     -2.657382205540398E+01
RMS Force                                  R      1.210785082385700E-07
RMS Density                                R      2.542355349526143E-09
Job Status                                 I                1
Nuclear derivative order                   I                1
External E-field                           R   N=          35
  0.00000000E+00  0.00000000E+00  0.00000000E+00  0.00000000E+00  0.00000000E+00
  0.00000000E+00  0.00000000E+00  0.00000000E+00  0.00000000E+00  0.00000000E+00
  0.00000000E+00  0.00000000E+00  0.00000000E+00  0.00000000E+00  0.00000000E+00
  0.00000000E+00  0.00000000E+00  0.00000000E+00  0.00000000E+00  0.00000000E+00
  0.00000000E+00  0.00000000E+00  0.00000000E+00  0.00000000E+00  0.00000000E+00
  0.00000000E+00  0.00000000E+00  0.00000000E+00  0.00000000E+00  0.00000000E+00
  0.00000000E+00  0.00000000E+00  0.00000000E+00  0.00000000E+00  0.00000000E+00
IOpCl                                      I                0
IROHF                                      I                0
Alpha Orbital Energies                     R   N=          29
 -6.55993307E+00 -4.57710622E-01 -3.10533992E-01 -3.10533992E-01 -1.10734890E-01
  1.19403950E-01  1.19403950E-01  1.22688777E-01  1.83054638E-01  2.33192865E-01
  2.33192865E-01  2.98259241E-01  6.10905493E-01  6.10905493E-01  6.19455918E-01
  8.67722995E-01  8.67722995E-01  1.22754309E+00  1.22754309E+00  1.24350323E+00
  1.36400554E+00  1.57131363E+00  1.77012508E+00  1.77012508E+00  1.97258981E+00
  1.97258981E+00  2.36216018E+00  2.50497852E+00  2.50497852E+00
Alpha MO coefficients                      R   N=         841
  9.89239315E-01 -4.23333245E-02  2.28314844E-02  0.00000000E+00  4.02749881E-16
  3.26853169E-11  0.00000000E+00 -9.82954031E-17  1.12092290E-09  2.43862034E-03
  0.00000000E+00 -3.29460988E-16 -3.75172883E-16  0.00000000E+00  4.20826631E-03
 -4.32365614E-03  0.00000000E+00 -6.16118631E-04 -7.33712866E-10  4.20826631E-03
 -4.32365614E-03  5.33574386E-04  3.08059315E-04 -7.33711860E-10  4.20826631E-03
 -4.32365614E-03 -5.33574386E-04  3.08059315E-04 -7.33711860E-10  2.42304614E-01
  4.85919806E-01  1.63017795E-01  0.00000000E+00  1.45047369E-15 -5.99948496E-08
  0.00000000E+00  9.50426061E-17  6.72422409E-10 -2.53642083E-03  0.00000000E+00
  6.12051117E-17  6.12243813E-16  0.00000000E+00  2.07065871E-01  5.14002215E-02
  0.00000000E+00 -1.90579140E-02 -7.05361530E-09  2.07065871E-01  5.14002215E-02
  1.65046377E-02  9.52895701E-03 -7.05361537E-09  2.07065871E-01  5.14002215E-02
 -1.65046377E-02  9.52895701E-03 -7.05361537E-09  0.00000000E+00  0.00000000E+00
  0.00000000E+00  4.23834127E-01  0.00000000E+00  0.00000000E+00 -1.32543686E-01
  0.00000000E+00  0.00000000E+00  0.00000000E+00 -6.79878525E-09  0.00000000E+00
  0.00000000E+00  1.78935255E-02  0.00000000E+00  0.00000000E+00 -8.13261349E-03
  0.00000000E+00  0.00000000E+00  3.18882742E-01  1.52782325E-01  5.58940525E-03
  7.92241121E-03 -6.91541384E-09 -3.18882742E-01 -1.52782325E-01  5.58940525E-03
 -7.92241121E-03  6.91541384E-09  1.55750847E-16 -9.57929980E-17  9.53381542E-15
  0.00000000E+00  4.23834127E-01 -1.92972623E-15  0.00000000E+00 -1.32543686E-01
  1.77417009E-15 -1.24255334E-16  0.00000000E+00 -6.79878596E-09  1.78935255E-02
  0.00000000E+00 -3.68214074E-01 -1.76417833E-01  0.00000000E+00  1.01634115E-02
  7.98523277E-09  1.84107037E-01  8.82089163E-02  7.92241121E-03 -3.55860724E-03
 -3.99261621E-09  1.84107037E-01  8.82089163E-02 -7.92241121E-03 -3.55860724E-03
 -3.99261621E-09  1.13911617E-07  3.01229626E-07  5.29358205E-07  0.00000000E+00
  5.36888560E-16  5.83095751E-01  0.00000000E+00 -9.12399384E-16 -5.37383669E-01
  1.00261889E-08  0.00000000E+00  7.21235629E-17  6.21008919E-17  0.00000000E+00
 -1.36381551E-07 -1.50565129E-07  0.00000000E+00  7.84258825E-09 -2.17088649E-02
 -1.36381551E-07 -1.50565131E-07 -6.79188071E-09 -3.92129415E-09 -2.17088649E-02
 -1.36381551E-07 -1.50565131E-07  6.79188071E-09 -3.92129415E-09 -2.17088649E-02
  5.48173159E-14  2.45813249E-13  4.41412856E-13  0.00000000E+00  3.38712460E-01
  4.08047014E-16  0.00000000E+00 -2.07885432E+00  9.51538161E-17  6.45304277E-15
  0.00000000E+00  4.17253540E-08 -5.52256945E-02  0.00000000E+00  1.63282997E-01
  2.22300356E+00  0.00000000E+00  1.27192235E-02  2.01233915E-08 -8.16414987E-02
 -1.11150178E+00  2.02701169E-02 -2.23896488E-02 -1.00616957E-08 -8.16414987E-02
 -1.11150178E+00 -2.02701169E-02 -2.23896488E-02 -1.00616957E-08  0.00000000E+00
  0.00000000E+00  0.00000000E+00 -3.38712460E-01  0.00000000E+00  0.00000000E+00
  2.07885432E+00  0.00000000E+00  0.00000000E+00  0.00000000E+00 -4.17253534E-08
  0.00000000E+00  0.00000000E+00  5.52256945E-02  0.00000000E+00  0.00000000E+00
  3.40926062E-02  0.00000000E+00  0.00000000E+00  1.41407224E-01  1.92517755E+00
 -1.01626608E-03 -2.02701169E-02  1.74273680E-08 -1.41407224E-01 -1.92517755E+00
 -1.01626608E-03  2.02701169E-02 -1.74273680E-08  2.22747334E-01  9.25382520E-01
  2.61565270E+00  0.00000000E+00 -8.20302085E-14 -2.30056017E-07  0.00000000E+00
  4.47555439E-13  1.11525839E-06  3.72104113E-02  0.00000000E+00 -9.88915073E-17
  8.49680792E-15  0.00000000E+00 -1.17600256E-01 -1.44818030E+00  0.00000000E+00
 -1.76034714E-02  1.57077218E-08 -1.17600256E-01 -1.44818030E+00  1.52450534E-02
  8.80173569E-03  1.57077217E-08 -1.17600256E-01 -1.44818030E+00 -1.52450534E-02
  8.80173569E-03  1.57077217E-08 -1.69246439E-01 -1.25090675E+00  3.52687832E+00
  0.00000000E+00 -1.30895595E-15 -5.85835419E-08  0.00000000E+00 -6.43512016E-14
  8.17874285E-07  4.23746507E-02  0.00000000E+00 -1.34330481E-16 -7.93577518E-15
  0.00000000E+00 -1.80442056E-01 -8.50076470E-01  0.00000000E+00  9.99983819E-03
  2.35335534E-08 -1.80442056E-01 -8.50076470E-01 -8.66011391E-03 -4.99991910E-03
  2.35335533E-08 -1.80442056E-01 -8.50076470E-01  8.66011391E-03 -4.99991910E-03
  2.35335533E-08  0.00000000E+00  0.00000000E+00  0.00000000E+00  7.88157261E-01
  0.00000000E+00  0.00000000E+00  1.09474976E+00  0.00000000E+00  0.00000000E+00
  0.00000000E+00 -2.28536128E-09  0.00000000E+00  0.00000000E+00  1.45238724E-02
  0.00000000E+00  0.00000000E+00  2.43352641E-03  0.00000000E+00  0.00000000E+00
  2.27805853E-01 -1.03308764E-01  3.05372361E-02  1.62256844E-02 -1.31039974E-08
 -2.27805853E-01  1.03308764E-01  3.05372361E-02 -1.62256844E-02  1.31039974E-08
 -2.42839375E-16 -1.07674641E-14  8.12637846E-14  0.00000000E+00  7.88157261E-01
  1.26519915E-16  0.00000000E+00  1.09474976E+00 -1.76101390E-16  1.45526963E-15
  0.00000000E+00 -2.28536090E-09  1.45238724E-02  0.00000000E+00 -2.63047541E-01
  1.19290685E-01  0.00000000E+00  3.99051394E-02  1.51311929E-08  1.31523771E-01
 -5.96453427E-02  1.62256844E-02  1.18014296E-02 -7.56559625E-09  1.31523771E-01
 -5.96453427E-02 -1.62256844E-02  1.18014296E-02 -7.56559625E-09  6.98086091E-08
  3.42913346E-07 -4.89167409E-07  0.00000000E+00 -3.76411159E-17  1.02711709E+00
  0.00000000E+00  1.43926087E-15  1.06641592E+00  1.68855411E-08  0.00000000E+00
  8.43376387E-17  5.81102760E-17  0.00000000E+00 -1.29845159E-07  1.66151954E-07
  0.00000000E+00  2.01023958E-08 -1.70084048E-02 -1.29845159E-07  1.66151956E-07
 -1.74091855E-08 -1.00511980E-08 -1.70084048E-02 -1.29845159E-07  1.66151956E-07
  1.74091855E-08 -1.00511980E-08 -1.70084048E-02  7.57489711E-14  3.31354690E-13
 -1.70410287E-12  0.00000000E+00 -6.28588765E-01  6.55844456E-16  0.00000000E+00
 -1.71705966E+00 -2.09006117E-16  1.18366353E-13  0.00000000E+00 -2.68464718E-07
  3.52874928E-01  0.00000000E+00 -8.93862731E-01  2.33973962E+00  0.00000000E+00
 -1.16145318E-01 -6.77640311E-08  4.46931366E-01 -1.16986981E+00 -7.36685591E-02
  1.14523691E-02  3.38820147E-08  4.46931366E-01 -1.16986981E+00  7.36685591E-02
  1.14523691E-02  3.38820147E-08  0.00000000E+00  0.00000000E+00  0.00000000E+00
  6.28588765E-01  0.00000000E+00  0.00000000E+00  1.71705966E+00  0.00000000E+00
  0.00000000E+00  0.00000000E+00  2.68464717E-07  0.00000000E+00  0.00000000E+00
 -3.52874928E-01  0.00000000E+00  0.00000000E+00 -5.39849315E-02  0.00000000E+00
  0.00000000E+00 -7.74107833E-01  2.02627395E+00  7.36127558E-02  7.36685591E-02
 -5.86853720E-08  7.74107833E-01 -2.02627395E+00  7.36127558E-02 -7.36685591E-02
  5.86853720E-08 -1.71525584E-01 -7.60207035E-01  3.89372983E+00  0.00000000E+00
 -2.80885596E-13  4.48973513E-07  0.00000000E+00 -7.73112592E-13  1.15474352E-06
 -2.60142570E-01  0.00000000E+00  2.41606314E-16  1.55561643E-13  0.00000000E+00
  7.36139961E-01 -1.89507665E+00  0.00000000E+00  7.37029284E-02 -1.93259605E-09
  7.36139961E-01 -1.89507665E+00 -6.38286083E-02 -3.68514642E-02 -1.93259667E-09
  7.36139961E-01 -1.89507665E+00  6.38286083E-02 -3.68514642E-02 -1.93259667E-09
  0.00000000E+00  0.00000000E+00  0.00000000E+00  1.01745901E-07  0.00000000E+00
  0.00000000E+00 -1.35793941E-07  0.00000000E+00  0.00000000E+00  0.00000000E+00
  7.82886305E-01  0.00000000E+00  0.00000000E+00  6.84537873E-07  0.00000000E+00
  0.00000000E+00  3.03132673E-07  0.00000000E+00  0.00000000E+00 -1.37591792E-07
 -6.70971581E-09  5.54075727E-09 -1.71814775E-07 -2.55995219E-01  1.37591792E-07
  6.70971581E-09  5.54075727E-09  1.71814775E-07  2.55995219E-01 -3.49579503E-16
 -4.71050077E-17 -5.61212131E-16  0.00000000E+00  1.01745900E-07  4.17630739E-17
  0.00000000E+00 -1.35793941E-07 -1.84105230E-16  6.29465594E-16  0.00000000E+00
  7.82886305E-01  6.84537875E-07  0.00000000E+00  1.58877315E-07  7.74771127E-09
  0.00000000E+00 -9.36565500E-08  2.95597817E-01 -7.94386582E-08 -3.87385469E-09
 -1.71814774E-07  2.03935369E-07 -1.47798909E-01 -7.94386582E-08 -3.87385469E-09
  1.71814774E-07  2.03935369E-07 -1.47798909E-01  0.00000000E+00  0.00000000E+00
  0.00000000E+00  2.97215730E-01  0.00000000E+00  0.00000000E+00 -4.83754517E-01
  0.00000000E+00  0.00000000E+00  0.00000000E+00 -7.14969514E-07  0.00000000E+00
  0.00000000E+00  7.23018398E-01  0.00000000E+00  0.00000000E+00  3.80363562E-01
  0.00000000E+00  0.00000000E+00 -6.39350483E-01  3.88726180E-02  2.29627204E-01
 -8.70276769E-02  3.04629301E-07  6.39350483E-01 -3.88726180E-02  2.29627204E-01
  8.70276769E-02 -3.04629301E-07 -6.30185992E-16 -1.80751142E-15 -8.65248178E-15
  0.00000000E+00  2.97215730E-01 -5.10957669E-16  0.00000000E+00 -4.83754517E-01
  4.54415854E-16  1.29782528E-14  0.00000000E+00 -7.14969512E-07  7.23018398E-01
  0.00000000E+00  7.38258347E-01 -4.48862329E-02  0.00000000E+00  1.79381752E-01
 -3.51755621E-07 -3.69129173E-01  2.24431165E-02 -8.70276769E-02  3.30118110E-01
  1.75877810E-07 -3.69129173E-01  2.24431165E-02  8.70276769E-02  3.30118110E-01
  1.75877810E-07 -5.38212283E-02 -1.01364300E-01 -2.81424519E-01  0.00000000E+00
 -1.91002187E-15  3.81508044E-07  0.00000000E+00  7.20968977E-15 -3.47512643E-07
  1.03861044E+00  0.00000000E+00  1.40839919E-15 -8.22124504E-15  0.00000000E+00
  4.71941235E-01 -8.38221139E-02  0.00000000E+00  9.00332162E-02  5.53392168E-07
  4.71941235E-01 -8.38221139E-02 -7.79710524E-02 -4.50166081E-02  5.53392171E-07
  4.71941235E-01 -8.38221139E-02  7.79710524E-02 -4.50166081E-02  5.53392171E-07
  0.00000000E+00  0.00000000E+00  0.00000000E+00 -4.52255369E-16  0.00000000E+00
  0.00000000E+00 -5.90365754E-15  0.00000000E+00  0.00000000E+00  0.00000000E+00
  1.62733415E-15  0.00000000E+00  0.00000000E+00 -2.29955905E-15  0.00000000E+00
  0.00000000E+00  5.81201134E-01  0.00000000E+00  0.00000000E+00  1.12919932E-15