Borane DF-BP86/def2-SVP                                                 
FOpt      RB97D3                                                      def2SVP/W06         
Number of atoms                            I                4
Info1-9                                    I   N=           9
          18          17           0           0           0         111
           2          18        -902
Full Title                                 C   N=           2
Borane DF-BP86/def2-SVP 
Route                                      C   N=          15
#P B97d3/def2SVP/W06 DenFit opt(MaxCycle=100 MaxStep=10 Very
Tight NoEigenTest) scf(xqc MaxConventionalCycle = 500) int(u
ltrafinegrid) gfinput gfoldprint iop(6/7=3) symmetry(loose) 
Charge                                     I                0
Multiplicity                               I                1
Number of electrons                        I                8
Number of alpha electrons                  I                4
Number of beta electrons                   I                4
Number of basis functions                  I               29
Number of independent functions            I               29
Number of point charges in /Mol/           I                0
Number of translation vectors              I                0
Atomic numbers                             I   N=           4
           5           1           1           1
Nuclear charges                            R   N=           4
  5.00000000E+00  1.00000000E+00  1.00000000E+00  1.00000000E+00
Current cartesian coordinates              R   N=          12
  0.00000000E+00  0.00000000E+00 -4.59582629E-07  0.00000000E+00  2.29118860E+00
  7.65971048E-07 -1.98422754E+00 -1.14559430E+00  7.65971048E-07  1.98422754E+00
 -1.14559430E+00  7.65971048E-07
Number of symbols in /Mol/                 I                0
Redundant internal dimensions              I   N=           4
           7           3           3           1
Redundant internal coordinate indices      I   N=          28
           1           2           0           0           1           3
           0           0           1           4           0           0
           2           1           3           0           2           1
           4           0           3           1           4           0
           2           1           4           3
Redundant internal coordinates             R   N=           7
  2.29118860E+00  2.29118860E+00  2.29118860E+00  2.09439510E+00  2.09439510E+00
  2.09439510E+00  3.14159080E+00
ZRed-IntVec                                I   N=           7
           0           0           0           0           0           0
           0
ZRed-FPVec                                 R   N=           7
  0.00000000E+00  0.00000000E+00  0.00000000E+00  0.00000000E+00  0.00000000E+00
  0.00000000E+00  0.00000000E+00
ZRed-Constraint1                           R   N=           7
  1.92367312E+00  1.92367312E+00  1.92367312E+00  1.84561291E+00  1.84561291E+00
  1.84561291E+00 -1.95243253E+00
ZRed-Constraint2                           R   N=           7
  0.00000000E+00  0.00000000E+00  0.00000000E+00  0.00000000E+00  0.00000000E+00
  0.00000000E+00  0.00000000E+00
Force Field                                I                0
Atom Types                                 C   N=           4
                                                
Int Atom Types                             I   N=           4
           0           0           0           0
MM charges                                 R   N=           4
  0.00000000E+00  0.00000000E+00  0.00000000E+00  0.00000000E+00
Integer atomic weights                     I   N=           4
          11           1           1           1
Real atomic weights                        R   N=           4
  1.10093053E+01  1.00782504E+00  1.00782504E+00  1.00782504E+00
Atom fragment info                         I   N=           4
           0           0           0           0
Atom residue num                           I   N=           4
           0           0           0           0
Nuclear spins                              I   N=           4
           3           1           1           1
Nuclear ZEff                               R   N=           4
 -2.75000000E+00 -1.00000000E+00 -1.00000000E+00 -1.00000000E+00
Nuclear ZNuc                               R   N=           4
  5.00000000E+00  1.00000000E+00  1.00000000E+00  1.00000000E+00
Nuclear QMom                               R   N=           4
  4.05900000E+00  0.00000000E+00  0.00000000E+00  0.00000000E+00
Nuclear GFac                               R   N=           4
  2.68863700E+00  2.79284600E+00  2.79284600E+00  2.79284600E+00
MicOpt                                     I   N=           4
          -1          -1          -1          -1
Number of residues                         I                0
Number of secondary structures             I                0
SymInf integers                            I   N=          26
           2           2           1           1           1          -1
           1           1           0           0           0           0
           0           0           0           0           0           0
           0           0           0           0           0           0
           0           0
RotTr to input orientation                 R   N=          12
  2.87900315E-10 -1.00000000E+00 -0.00000000E+00 -1.00000000E+00 -2.87900315E-10
  0.00000000E+00 -0.00000000E+00 -0.00000000E+00 -1.00000000E+00 -2.36215325E-10
  6.66133815E-16  4.31346209E-01
Number of contracted shells                I               15
Number of primitive shells                 I               27
Pure/Cartesian d shells                    I                0
Pure/Cartesian f shells                    I                0
Highest angular momentum                   I                2
Largest degree of contraction              I                5
Shell types                                I   N=          15
           0           0           0           1           1          -2
           0           0           1           0           0           1
           0           0           1
Number of primitives per shell             I   N=          15
           5           1           1           3           1           1
           3           1           1           3           1           1
           3           1           1
Shell to atom map                          I   N=          15
           1           1           1           1           1           1
           2           2           2           3           3           3
           4           4           4
Primitive exponents                        R   N=          27
  8.39318301E+02  1.26264648E+02  2.86206008E+01  7.87937227E+00  2.40888572E+00
  2.51051090E-01  8.36488661E-02  6.03322236E+00  1.24991579E+00  3.38716764E-01
  9.64156324E-02  5.00000000E-01  1.30107010E+01  1.96225720E+00  4.44537960E-01
  1.21949620E-01  8.00000000E-01  1.30107010E+01  1.96225720E+00  4.44537960E-01
  1.21949620E-01  8.00000000E-01  1.30107010E+01  1.96225720E+00  4.44537960E-01
  1.21949620E-01  8.00000000E-01
Contraction coefficients                   R   N=          27
 -5.62888360E-03 -4.18327946E-02 -1.84174881E-01 -4.68396550E-01 -4.44579309E-01
  1.00000000E+00  1.00000000E+00 -5.40325003E-02 -3.01940344E-01 -7.71707917E-01
  1.00000000E+00  1.00000000E+00  3.34854848E-02  2.34721871E-01  8.13770285E-01
  1.00000000E+00  1.00000000E+00  3.34854848E-02  2.34721871E-01  8.13770285E-01
  1.00000000E+00  1.00000000E+00  3.34854848E-02  2.34721871E-01  8.13770285E-01
  1.00000000E+00  1.00000000E+00
Coordinates of each shell                  R   N=          45
  0.00000000E+00  0.00000000E+00 -4.59582629E-07  0.00000000E+00  0.00000000E+00
 -4.59582629E-07  0.00000000E+00  0.00000000E+00 -4.59582629E-07  0.00000000E+00
  0.00000000E+00 -4.59582629E-07  0.00000000E+00  0.00000000E+00 -4.59582629E-07
  0.00000000E+00  0.00000000E+00 -4.59582629E-07  0.00000000E+00  2.29118860E+00
  7.65971048E-07  0.00000000E+00  2.29118860E+00  7.65971048E-07  0.00000000E+00
  2.29118860E+00  7.65971048E-07 -1.98422754E+00 -1.14559430E+00  7.65971048E-07
 -1.98422754E+00 -1.14559430E+00  7.65971048E-07 -1.98422754E+00 -1.14559430E+00
  7.65971048E-07  1.98422754E+00 -1.14559430E+00  7.65971048E-07  1.98422754E+00
 -1.14559430E+00  7.65971048E-07  1.98422754E+00 -1.14559430E+00  7.65971048E-07
Density Number of contracted shells        I               30
Density Number of primitive shells         I               48
Density Pure/Cartesian d shells            I                0
Density Pure/Cartesian f shells            I                0
Density Highest angular momentum           I                4
Density Largest degree of contraction      I                7
Density Shell types                        I   N=          30
           0           0           0           0           0           0
           1           1           1           1          -2          -2
          -2          -3          -4           0           0           0
           1          -2           0           0           0           1
          -2           0           0           0           1          -2
Density Number of primitives per shell     I   N=          30
           7           1           1           1           1           1
           2           1           1           1           2           1
           1           2           1           3           1           1
           2           1           3           1           1           2
           1           3           1           1           2           1
Density Shell to atom map                  I   N=          30
           1           1           1           1           1           1
           1           1           1           1           1           1
           1           1           1           2           2           2
           2           2           3           3           3           3
           3           4           4           4           4           4
Density Primitive exponents                R   N=          48
  1.32220167E+03  4.58237065E+02  1.68002364E+02  6.49577690E+01  2.63871856E+01
  1.12108611E+01  4.95544600E+00  2.26528250E+00  1.06380860E+00  5.09518700E-01
  2.46985900E-01  1.20208900E-01  9.35607360E+00  3.97431310E+00  1.66451470E+00
  6.91303500E-01  2.86313500E-01  2.11203130E+00  7.78076900E-01  3.27710100E-01
  1.44946500E-01  1.05827180E+00  4.01000000E-01  6.51430000E-01  1.56752927E+01
  3.60635780E+00  1.20800160E+00  4.72679400E-01  2.01810000E-01  2.02813650E+00
  5.35873000E-01  2.21651240E+00  1.56752927E+01  3.60635780E+00  1.20800160E+00
  4.72679400E-01  2.01810000E-01  2.02813650E+00  5.35873000E-01  2.21651240E+00
  1.56752927E+01  3.60635780E+00  1.20800160E+00  4.72679400E-01  2.01810000E-01
  2.02813650E+00  5.35873000E-01  2.21651240E+00
Density Contraction coefficients           R   N=          48
  1.53384509E-03  5.60201807E-03  3.18681252E-02  1.19551563E-01  3.17408619E-01
  4.16304341E-01  1.47651804E-01 -1.00000000E+00  1.00000000E+00  1.00000000E+00
  1.00000000E+00  1.00000000E+00 -4.40207096E-01 -5.91824781E-01  1.00000000E+00
 -1.00000000E+00  1.00000000E+00  2.59331761E-01  7.59198463E-01  1.00000000E+00
  1.00000000E+00  6.30976335E-01  4.23437776E-01 -1.00000000E+00  3.26115897E-02
  2.29804684E-01  7.57208324E-01  1.00000000E+00  1.00000000E+00  3.61836199E-01
  7.03930309E-01  1.00000000E+00  3.26115897E-02  2.29804684E-01  7.57208324E-01
  1.00000000E+00  1.00000000E+00  3.61836199E-01  7.03930309E-01  1.00000000E+00
  3.26115897E-02  2.29804684E-01  7.57208324E-01  1.00000000E+00  1.00000000E+00
  3.61836199E-01  7.03930309E-01  1.00000000E+00
Density Coordinates of each shell          R   N=          90
  0.00000000E+00  0.00000000E+00 -4.59582629E-07  0.00000000E+00  0.00000000E+00
 -4.59582629E-07  0.00000000E+00  0.00000000E+00 -4.59582629E-07  0.00000000E+00
  0.00000000E+00 -4.59582629E-07  0.00000000E+00  0.00000000E+00 -4.59582629E-07
  0.00000000E+00  0.00000000E+00 -4.59582629E-07  0.00000000E+00  0.00000000E+00
 -4.59582629E-07  0.00000000E+00  0.00000000E+00 -4.59582629E-07  0.00000000E+00
  0.00000000E+00 -4.59582629E-07  0.00000000E+00  0.00000000E+00 -4.59582629E-07
  0.00000000E+00  0.00000000E+00 -4.59582629E-07  0.00000000E+00  0.00000000E+00
 -4.59582629E-07  0.00000000E+00  0.00000000E+00 -4.59582629E-07  0.00000000E+00
  0.00000000E+00 -4.59582629E-07  0.00000000E+00  0.00000000E+00 -4.59582629E-07
  0.00000000E+00  2.29118860E+00  7.65971048E-07  0.00000000E+00  2.29118860E+00
  7.65971048E-07  0.00000000E+00  2.29118860E+00  7.65971048E-07  0.00000000E+00
  2.29118860E+00  7.65971048E-07  0.00000000E+00  2.29118860E+00  7.65971048E-07
 -1.98422754E+00 -1.14559430E+00  7.65971048E-07 -1.98422754E+00 -1.14559430E+00
  7.65971048E-07 -1.98422754E+00 -1.14559430E+00  7.65971048E-07 -1.98422754E+00
 -1.14559430E+00  7.65971048E-07 -1.98422754E+00 -1.14559430E+00  7.65971048E-07
  1.98422754E+00 -1.14559430E+00  7.65971048E-07  1.98422754E+00 -1.14559430E+00
  7.65971048E-07  1.98422754E+00 -1.14559430E+00  7.65971048E-07  1.98422754E+00
 -1.14559430E+00  7.65971048E-07  1.98422754E+00 -1.14559430E+00  7.65971048E-07
Constraint Structure                       R   N=          12
  0.00000000E+00 -0.00000000E+00  2.81632736E-01  0.00000000E+00  1.77101279E+00
 -4.69387893E-01 -1.53374206E+00 -8.85506393E-01 -4.69387893E-01  1.53374206E+00
 -8.85506393E-01 -4.69387893E-01
Num ILSW                                   I              100
ILSW                                       I   N=         100
           0           0           0           0           2           0
           0           0           0           0        3630          -1
           5           0           0           0           2           0
           0           0           0           0           1           0
           1           0           0           0           0           0
           0           0      100000           0          -1           0
           0           0           0           0           0           0
           0           0           0           1           0           0
           0           0           1           0           0           0
           0           0         141          41           0           0
           0           0          59           0           0           0
           0           0           0           4           0           0
           0           0           0           0           0           0
           0           0           0           0           0           0
           0           0           0           0           0           0
           0           0           0           0           0           0
           0           0           0           0
Num RLSW                                   I               41
RLSW                                       R   N=          41
  1.00000000E+00  1.00000000E+00  1.00000000E+00  1.00000000E+00  0.00000000E+00
  0.00000000E+00  0.00000000E+00  1.00000000E+00  0.00000000E+00  0.00000000E+00
  0.00000000E+00  0.00000000E+00  1.00000000E+00  0.00000000E+00  0.00000000E+00
  0.00000000E+00  0.00000000E+00  1.00000000E+00  0.00000000E+00  0.00000000E+00
  0.00000000E+00  0.00000000E+00  1.00000000E+00  0.00000000E+00  0.00000000E+00
  0.00000000E+00  0.00000000E+00  1.00000000E+00  0.00000000E+00  0.00000000E+00
  0.00000000E+00  0.00000000E+00  1.00000000E+00  0.00000000E+00  0.00000000E+00
  0.00000000E+00  0.00000000E+00  0.00000000E+00  1.00000000E+00  1.00000000E+00
  0.00000000E+00
ECP-MxAtEC                                 I           250000
ECP-MaxLECP                                I               10
ECP-MaxAtL                                 I          2250000
ECP-MxTECP                                 I         11250000
ECP-LenNCZ                                 I                0
ECP-KFirst                                 I   N=          40
           0           0           0           0           0           0
           0           0           0           0           0           0
           0           0           0           0           0           0
           0           0           0           0           0           0
           0           0           0           0           0           0
           0           0           0           0           0           0
           0           0           0           0
ECP-KLast                                  I   N=          40
           0           0           0           0           0           0
           0           0           0           0           0           0
           0           0           0           0           0           0
           0           0           0           0           0           0
           0           0           0           0           0           0
           0           0           0           0           0           0
           0           0           0           0
ECP-LMax                                   I   N=           4
           0           0           0           0
ECP-LPSkip                                 I   N=           4
           1           1           1           1
ECP-RNFroz                                 R   N=           4
  0.00000000E+00  0.00000000E+00  0.00000000E+00  0.00000000E+00
ECP-NLP                                    I                0
ECP-CLP1                                   R      0.000000000000000E+00
ECP-CLP2                                   R      0.000000000000000E+00
ECP-ZLP                                    R      0.000000000000000E+00
MxBond                                     I                3
NBond                                      I   N=           4
           3           1           1           1
IBond                                      I   N=          12
           2           3           4           1           0           0
           1           0           0           1           0           0
RBond                                      R   N=          12
  2.00000000E+00  2.00000000E+00  2.00000000E+00  2.00000000E+00  0.00000000E+00
  0.00000000E+00  2.00000000E+00  0.00000000E+00  0.00000000E+00  2.00000000E+00
  0.00000000E+00  0.00000000E+00
Virial Ratio                               R      2.016561239553379E+00
SCF Energy                                 R     -2.657230733565234E+01
Total Energy                               R     -2.657230733565234E+01
RMS Force                                  R      1.518604716764061E-07
RMS Density                                R      3.240275575118412E-09
Job Status                                 I                1
Nuclear derivative order                   I                1
External E-field                           R   N=          35
  0.00000000E+00  0.00000000E+00  0.00000000E+00  0.00000000E+00  0.00000000E+00
  0.00000000E+00  0.00000000E+00  0.00000000E+00  0.00000000E+00  0.00000000E+00
  0.00000000E+00  0.00000000E+00  0.00000000E+00  0.00000000E+00  0.00000000E+00
  0.00000000E+00  0.00000000E+00  0.00000000E+00  0.00000000E+00  0.00000000E+00
  0.00000000E+00  0.00000000E+00  0.00000000E+00  0.00000000E+00  0.00000000E+00
  0.00000000E+00  0.00000000E+00  0.00000000E+00  0.00000000E+00  0.00000000E+00
  0.00000000E+00  0.00000000E+00  0.00000000E+00  0.00000000E+00  0.00000000E+00
IOpCl                                      I                0
IROHF                                      I                0
Alpha Orbital Energies                     R   N=          29
 -6.57058055E+00 -4.53943428E-01 -3.07977164E-01 -3.07977164E-01 -1.00257658E-01
  1.24227038E-01  1.24227038E-01  1.29142087E-01  1.82490989E-01  2.38132966E-01
  2.38132966E-01  3.07263374E-01  6.13566669E-01  6.13566669E-01  6.20765082E-01
  8.72226072E-01  8.72226072E-01  1.22932438E+00  1.22932438E+00  1.25087355E+00
  1.36523504E+00  1.57406114E+00  1.77454275E+00  1.77454275E+00  1.97668736E+00
  1.97668736E+00  2.36738149E+00  2.51390980E+00  2.51390980E+00
Alpha MO coefficients                      R   N=         841
  9.89893589E-01 -3.94094453E-02  2.13599169E-02  0.00000000E+00 -5.26951935E-16
 -2.10468693E-10  0.00000000E+00  3.42093734E-16  1.41839106E-09  2.23782630E-03
  0.00000000E+00 -2.21700960E-16  4.66423162E-17  0.00000000E+00  3.74083057E-03
 -4.11733920E-03  0.00000000E+00 -2.56898378E-04 -7.45063397E-10  3.74083057E-03
 -4.11733920E-03  2.22480522E-04  1.28449189E-04 -7.45063944E-10  3.74083057E-03
 -4.11733920E-03 -2.22480522E-04  1.28449189E-04 -7.45063944E-10  2.40221883E-01
  4.79792141E-01  1.65975052E-01  0.00000000E+00  7.14013399E-16 -8.16634911E-08
  0.00000000E+00 -1.17404858E-15  1.79143610E-09 -4.27898356E-03  0.00000000E+00
  1.07223136E-16  1.82009426E-16  0.00000000E+00  2.11374845E-01  4.90736596E-02
  0.00000000E+00 -1.98594143E-02 -9.31936941E-09  2.11374845E-01  4.90736596E-02
  1.71987573E-02  9.92970717E-03 -9.31936944E-09  2.11374845E-01  4.90736596E-02
 -1.71987573E-02  9.92970717E-03 -9.31936944E-09  0.00000000E+00  0.00000000E+00
  0.00000000E+00  4.19345662E-01  0.00000000E+00  0.00000000E+00 -1.29614116E-01
  0.00000000E+00  0.00000000E+00  0.00000000E+00 -9.36307436E-09  0.00000000E+00
  0.00000000E+00  1.87419180E-02  0.00000000E+00  0.00000000E+00 -8.39145208E-03
  0.00000000E+00  0.00000000E+00  3.24070462E-01  1.51735476E-01  6.30344099E-03
  8.48410047E-03 -9.43750689E-09 -3.24070462E-01 -1.51735476E-01  6.30344099E-03
 -8.48410047E-03  9.43750689E-09 -2.36058809E-16 -4.90226875E-16  1.11555589E-14
  0.00000000E+00  4.19345662E-01 -2.53259148E-15  0.00000000E+00 -1.29614116E-01
  2.42101310E-15 -4.54803544E-16  0.00000000E+00 -9.36307411E-09  1.87419180E-02
  0.00000000E+00 -3.74204337E-01 -1.75209036E-01  0.00000000E+00  1.12017387E-02
  1.08974946E-08  1.87102169E-01  8.76045179E-02  8.48410047E-03 -3.49315439E-03
 -5.44874694E-09  1.87102169E-01  8.76045179E-02 -8.48410047E-03 -3.49315439E-03
 -5.44874694E-09 -1.47927818E-07 -3.79565832E-07 -7.59905959E-07  0.00000000E+00
 -4.62575137E-16 -5.59590824E-01  0.00000000E+00  2.72786700E-16  5.60407291E-01
 -1.02362814E-08  0.00000000E+00 -6.80197757E-17  4.44145344E-17  0.00000000E+00
  1.81722378E-07  2.13106502E-07  0.00000000E+00 -1.14729421E-08  2.25816186E-02
  1.81722377E-07  2.13106502E-07  9.93585927E-09  5.73647103E-09  2.25816186E-02
  1.81722377E-07  2.13106502E-07 -9.93585927E-09  5.73647103E-09  2.25816186E-02
  0.00000000E+00  0.00000000E+00  0.00000000E+00 -3.25352759E-01  0.00000000E+00
  0.00000000E+00  2.10376162E+00  0.00000000E+00  0.00000000E+00  0.00000000E+00
 -5.36102130E-08  0.00000000E+00  0.00000000E+00  5.45696392E-02  0.00000000E+00
  0.00000000E+00  3.44935366E-02  0.00000000E+00  0.00000000E+00  1.41231008E-01
  1.93246807E+00 -9.73188350E-04 -2.04767232E-02  2.34121229E-08 -1.41231008E-01
 -1.93246807E+00 -9.73188350E-04  2.04767232E-02 -2.34121229E-08  1.73725152E-13
  6.76739982E-13  2.59254641E-12  0.00000000E+00  3.25352759E-01 -2.53265151E-16
  0.00000000E+00 -2.10376162E+00 -1.86980785E-16  2.96179119E-14  0.00000000E+00
  5.36102131E-08 -5.45696392E-02  0.00000000E+00  1.63079521E-01  2.23142192E+00
  0.00000000E+00  1.27954300E-02  2.70339908E-08 -8.15397603E-02 -1.11571096E+00
  2.04767232E-02 -2.26712950E-02 -1.35169954E-08 -8.15397603E-02 -1.11571096E+00
 -2.04767232E-02 -2.26712950E-02 -1.35169954E-08  2.12588960E-01  8.56695428E-01
  2.83196761E+00  0.00000000E+00 -2.87863978E-13 -2.91088463E-07  0.00000000E+00
  1.78473201E-12  1.54566371E-06  3.52971734E-02  0.00000000E+00 -3.53275945E-17
  4.90985999E-14  0.00000000E+00 -1.23237256E-01 -1.50562664E+00  0.00000000E+00
 -1.75612795E-02  2.20977515E-08 -1.23237256E-01 -1.50562664E+00  1.52085142E-02
  8.78063974E-03  2.20977514E-08 -1.23237256E-01 -1.50562664E+00 -1.52085142E-02
  8.78063974E-03  2.20977514E-08 -1.80331955E-01 -1.29723555E+00  3.40745547E+00
  0.00000000E+00 -2.33472712E-14 -5.50568137E-08  0.00000000E+00  7.23214337E-14
  1.02475968E-06  3.77358979E-02  0.00000000E+00 -4.82109021E-17  3.23641491E-15
  0.00000000E+00 -1.70413569E-01 -7.83641734E-01  0.00000000E+00  1.20370729E-02
  3.01896334E-08 -1.70413569E-01 -7.83641734E-01 -1.04244109E-02 -6.01853646E-03
  3.01896333E-08 -1.70413569E-01 -7.83641734E-01  1.04244109E-02 -6.01853646E-03
  3.01896333E-08  6.77705180E-17 -4.62815147E-15  5.22965902E-14  0.00000000E+00
  7.85748888E-01  1.64129726E-16  0.00000000E+00  1.05337263E+00  3.91243614E-16
  2.06046255E-15  0.00000000E+00 -2.60293731E-09  1.32496457E-02  0.00000000E+00
 -2.66688710E-01  1.66726308E-01  0.00000000E+00  4.16010892E-02  2.12837713E-08
  1.33344355E-01 -8.33631542E-02  1.73229157E-02  1.15969191E-02 -1.06418860E-08
  1.33344355E-01 -8.33631542E-02 -1.73229157E-02  1.15969191E-02 -1.06418860E-08
  0.00000000E+00  0.00000000E+00  0.00000000E+00  7.85748888E-01  0.00000000E+00
  0.00000000E+00  1.05337263E+00  0.00000000E+00  0.00000000E+00  0.00000000E+00
 -2.60293633E-09  0.00000000E+00  0.00000000E+00  1.32496457E-02  0.00000000E+00
  0.00000000E+00  1.59552905E-03  0.00000000E+00  0.00000000E+00  2.30959198E-01
 -1.44389219E-01  3.15996992E-02  1.73229157E-02 -1.84322868E-08 -2.30959198E-01
  1.44389219E-01  3.15996992E-02 -1.73229157E-02  1.84322868E-08  9.86171627E-08
  4.83024412E-07 -7.56081638E-07  0.00000000E+00  3.36123143E-17  1.03861600E+00
  0.00000000E+00 -7.90098816E-16  1.05502916E+00  1.97635253E-08  0.00000000E+00
 -3.81031732E-17 -1.80964668E-16  0.00000000E+00 -1.85361496E-07  2.68958654E-07
  0.00000000E+00  2.84006953E-08 -1.97254350E-02 -1.85361497E-07  2.68958654E-07
 -2.45957235E-08 -1.42003477E-08 -1.97254350E-02 -1.85361497E-07  2.68958654E-07
  2.45957235E-08 -1.42003477E-08 -1.97254350E-02 -6.86834178E-14 -2.99613230E-13
  1.50144300E-12  0.00000000E+00 -6.33094550E-01  1.04978527E-15  0.00000000E+00
 -1.72018467E+00  4.31466533E-16 -1.02241691E-13  0.00000000E+00 -3.51154422E-07
  3.53515564E-01  0.00000000E+00 -8.90253171E-01  2.33938473E+00  0.00000000E+00
 -1.19265676E-01 -9.18315582E-08  4.45126585E-01 -1.16969237E+00 -7.56007260E-02
  1.16786227E-02  4.59157789E-08  4.45126585E-01 -1.16969237E+00  7.56007260E-02
  1.16786227E-02  4.59157789E-08  0.00000000E+00  0.00000000E+00  0.00000000E+00
  6.33094550E-01  0.00000000E+00  0.00000000E+00  1.72018467E+00  0.00000000E+00
  0.00000000E+00  0.00000000E+00  3.51154422E-07  0.00000000E+00  0.00000000E+00
 -3.53515564E-01  0.00000000E+00  0.00000000E+00 -5.53267222E-02  0.00000000E+00
  0.00000000E+00 -7.70981862E-01  2.02596661E+00  7.56175763E-02  7.56007260E-02
 -7.95284632E-08  7.70981862E-01 -2.02596661E+00  7.56175763E-02 -7.56007260E-02
  7.95284632E-08 -1.72304641E-01 -7.57964640E-01  3.86854192E+00  0.00000000E+00
  2.52411459E-13  6.08998269E-07  0.00000000E+00  6.96427457E-13  1.51933010E-06
 -2.57291790E-01  0.00000000E+00  7.51424138E-16 -1.37659435E-13  0.00000000E+00
  7.38381702E-01 -1.88737306E+00  0.00000000E+00  7.55769812E-02 -3.94949331E-09
  7.38381702E-01 -1.88737306E+00 -6.54515857E-02 -3.77884906E-02 -3.94949371E-09
  7.38381702E-01 -1.88737306E+00  6.54515857E-02 -3.77884906E-02 -3.94949371E-09
  8.59117159E-16  1.97578387E-15 -6.60733407E-15  0.00000000E+00  1.38765237E-07
  4.52853586E-16  0.00000000E+00 -1.75280576E-07 -3.34842147E-16 -4.73678035E-17
  0.00000000E+00  7.79902219E-01  8.99798515E-07  0.00000000E+00  2.15297955E-07
  4.11436657E-09  0.00000000E+00 -1.22462888E-07  2.98355138E-01 -1.07648980E-07
 -2.05717847E-09 -2.26533144E-07  2.69904026E-07 -1.49177569E-01 -1.07648980E-07
 -2.05717847E-09  2.26533144E-07  2.69904026E-07 -1.49177569E-01  0.00000000E+00
  0.00000000E+00  0.00000000E+00  1.38765236E-07  0.00000000E+00  0.00000000E+00
 -1.75280576E-07  0.00000000E+00  0.00000000E+00  0.00000000E+00  7.79902219E-01
  0.00000000E+00  0.00000000E+00  8.99798516E-07  0.00000000E+00  0.00000000E+00
  4.00692999E-07  0.00000000E+00  0.00000000E+00 -1.86453500E-07 -3.56314277E-09
  8.32608301E-09 -2.26533143E-07 -2.58383129E-01  1.86453500E-07  3.56314277E-09
  8.32608301E-09  2.26533143E-07  2.58383129E-01  0.00000000E+00  0.00000000E+00
  0.00000000E+00  2.96697268E-01  0.00000000E+00  0.00000000E+00 -4.81737223E-01
  0.00000000E+00  0.00000000E+00  0.00000000E+00 -9.37100727E-07  0.00000000E+00
  0.00000000E+00  7.20413359E-01  0.00000000E+00  0.00000000E+00  3.80669063E-01
  0.00000000E+00  0.00000000E+00 -6.38111118E-01  4.00959115E-02  2.32116000E-01
 -8.57671505E-02  4.02586351E-07  6.38111118E-01 -4.00959115E-02  2.32116000E-01
  8.57671505E-02 -4.02586351E-07 -5.23161820E-15 -6.49061053E-15 -4.95890530E-14
  0.00000000E+00  2.96697268E-01  3.85107672E-17  0.00000000E+00 -4.81737223E-01
  5.66828651E-16  1.19162134E-13  0.00000000E+00 -9.37100727E-07  7.20413359E-01
  0.00000000E+00  7.36827252E-01 -4.62987706E-02  0.00000000E+00  1.82598313E-01
 -4.64866675E-07 -3.68413626E-01  2.31493853E-02 -8.57671505E-02  3.31151375E-01
  2.32433339E-07 -3.68413626E-01  2.31493853E-02  8.57671505E-02  3.31151375E-01
  2.32433339E-07 -5.21353862E-02 -9.43335134E-02 -2.85411955E-01  0.00000000E+00
 -3.71114462E-14  5.20005861E-07  0.00000000E+00  5.67675158E-14 -4.55080644E-07
  1.03880994E+00  0.00000000E+00  1.49382426E-16 -8.24060932E-14  0.00000000E+00
  4.68726700E-01 -8.19447297E-02  0.00000000E+00  9.14770095E-02  7.44119979E-07
  4.68726700E-01 -8.19447297E-02 -7.92214141E-02 -4.57385047E-02  7.44119979E-07
  4.68726700E-01 -8.19447297E-02  7.92214141E-02 -4.57385047E-02  7.44119979E-07
  0.00000000E+00  0.00000000E+00  0.00000000E+00  1.28787295E-15  0.00000000E+00
  0.00000000E+00 -8.60156518E-15  0.00000000E+00  0.00000000E+00  0.00000000E+00
 -2.96266553E-15  0.00000000E+00  0.00000000E+00  6.52472606E-15  0.00000000E+00
  0.00000000E+00  5.81261172E-01  0.00000000E+00  0.00000000E+00 -4.78378208E-15