 Entering Gaussian System, Link 0=g09
 Input=borane.df-pbesvp.com
 Output=borane.df-pbesvp.log
 Initial command:
 /home/chemsoft/gaussian/g09e01/g09/l1.exe "/scr/martin/g09job.inter1516774682/Gau-12087.inp" -scrdir="/scr/martin/g09job.inter1516774682/"
 Entering Link 1 = /home/chemsoft/gaussian/g09e01/g09/l1.exe PID=     12088.
  
 Copyright (c) 1988,1990,1992,1993,1995,1998,2003,2009,2015,
            Gaussian, Inc.  All Rights Reserved.
  
 This is part of the Gaussian(R) 09 program.  It is based on
 the Gaussian(R) 03 system (copyright 2003, Gaussian, Inc.),
 the Gaussian(R) 98 system (copyright 1998, Gaussian, Inc.),
 the Gaussian(R) 94 system (copyright 1995, Gaussian, Inc.),
 the Gaussian 92(TM) system (copyright 1992, Gaussian, Inc.),
 the Gaussian 90(TM) system (copyright 1990, Gaussian, Inc.),
 the Gaussian 88(TM) system (copyright 1988, Gaussian, Inc.),
 the Gaussian 86(TM) system (copyright 1986, Carnegie Mellon
 University), and the Gaussian 82(TM) system (copyright 1983,
 Carnegie Mellon University). Gaussian is a federally registered
 trademark of Gaussian, Inc.
  
 This software contains proprietary and confidential information,
 including trade secrets, belonging to Gaussian, Inc.
  
 This software is provided under written license and may be
 used, copied, transmitted, or stored only in accord with that
 written license.
  
 The following legend is applicable only to US Government
 contracts under FAR:
  
                    RESTRICTED RIGHTS LEGEND
  
 Use, reproduction and disclosure by the US Government is
 subject to restrictions as set forth in subparagraphs (a)
 and (c) of the Commercial Computer Software - Restricted
 Rights clause in FAR 52.227-19.
  
 Gaussian, Inc.
 340 Quinnipiac St., Bldg. 40, Wallingford CT 06492
  
  
 ---------------------------------------------------------------
 Warning -- This program may not be used in any manner that
 competes with the business of Gaussian, Inc. or will provide
 assistance to any competitor of Gaussian, Inc.  The licensee
 of this program is prohibited from giving any competitor of
 Gaussian, Inc. access to this program.  By using this program,
 the user acknowledges that Gaussian, Inc. is engaged in the
 business of creating and licensing software in the field of
 computational chemistry and represents and warrants to the
 licensee that it is not a competitor of Gaussian, Inc. and that
 it will not use this program in any manner prohibited above.
 ---------------------------------------------------------------
  

 Cite this work as:
 Gaussian 09, Revision E.01,
 M. J. Frisch, G. W. Trucks, H. B. Schlegel, G. E. Scuseria, 
 M. A. Robb, J. R. Cheeseman, G. Scalmani, V. Barone, B. Mennucci, 
 G. A. Petersson, H. Nakatsuji, M. Caricato, X. Li, H. P. Hratchian, 
 A. F. Izmaylov, J. Bloino, G. Zheng, J. L. Sonnenberg, M. Hada, 
 M. Ehara, K. Toyota, R. Fukuda, J. Hasegawa, M. Ishida, T. Nakajima, 
 Y. Honda, O. Kitao, H. Nakai, T. Vreven, J. A. Montgomery, Jr., 
 J. E. Peralta, F. Ogliaro, M. Bearpark, J. J. Heyd, E. Brothers, 
 K. N. Kudin, V. N. Staroverov, T. Keith, R. Kobayashi, J. Normand, 
 K. Raghavachari, A. Rendell, J. C. Burant, S. S. Iyengar, J. Tomasi, 
 M. Cossi, N. Rega, J. M. Millam, M. Klene, J. E. Knox, J. B. Cross, 
 V. Bakken, C. Adamo, J. Jaramillo, R. Gomperts, R. E. Stratmann, 
 O. Yazyev, A. J. Austin, R. Cammi, C. Pomelli, J. W. Ochterski, 
 R. L. Martin, K. Morokuma, V. G. Zakrzewski, G. A. Voth, 
 P. Salvador, J. J. Dannenberg, S. Dapprich, A. D. Daniels, 
 O. Farkas, J. B. Foresman, J. V. Ortiz, J. Cioslowski, 
 and D. J. Fox, Gaussian, Inc., Wallingford CT, 2013.
 
 ******************************************
 Gaussian 09:  ES64L-G09RevE.01 30-Nov-2015
                24-Jan-2018 
 ******************************************
 %chk=borane.df-pbesvp.chk
 ----------------------------------------------------------------------
 #P PBEPBE/def2SVP/W06 DenFit opt(MaxCycle=100 MaxStep=10 VeryTight NoE
 igenTest) scf(xqc MaxConventionalCycle = 500) int(ultrafinegrid) gfinp
 ut gfoldprint iop(6/7=3) symmetry(loose)
 ----------------------------------------------------------------------
 1/6=100,7=1,8=10,11=1,14=-1,18=20,19=15,26=4,38=1/1,3;
 2/9=110,12=2,17=4,18=3,40=1/2;
 3/5=43,7=101,11=2,16=1,24=11,25=1,30=1,71=1,74=1009,75=-5,82=40/1,2,3;
 4//1;
 5/5=2,8=3,13=1,38=5,85=500/2,8;
 6/7=3,8=2,9=2,10=2,28=1/1;
 7//1,2,3,16;
 1/6=100,7=1,8=10,11=1,14=-1,18=20,19=15,26=4/3(2);
 2/9=110/2;
 99//99;
 2/9=110/2;
 3/5=43,7=101,11=2,16=1,25=1,30=1,71=1,74=1009,75=-5,82=40/1,2,3;
 4/5=5,16=3,69=1/1;
 5/5=2,8=3,13=1,38=5,85=500/2,8;
 7//1,2,3,16;
 1/6=100,7=1,8=10,11=1,14=-1,18=20,19=15,26=4/3(-5);
 2/9=110/2;
 6/7=3,8=2,9=2,10=2,19=2,28=1/1;
 99/9=1/99;
 Leave Link    1 at Wed Jan 24 15:18:03 2018, MaxMem=           0 cpu:         0.1
 (Enter /home/chemsoft/gaussian/g09e01/g09/l101.exe)
 -----------------------
 Borane DF-BP86/def2-SVP
 -----------------------
 Symbolic Z-matrix:
 Charge =  0 Multiplicity = 1
 B                     0.        0.       -0.07057 
 H                    -0.93718   0.        0.32685 
 H                     0.46859   0.81162   0.32685 
 H                     0.46859  -0.81162   0.32685 
 
 NAtoms=      4 NQM=        4 NQMF=       0 NMMI=      0 NMMIF=      0
                NMic=       0 NMicF=      0.
                    Isotopes and Nuclear Properties:
 (Nuclear quadrupole moments (NQMom) in fm**2, nuclear magnetic moments (NMagM)
  in nuclear magnetons)

  Atom         1           2           3           4
 IAtWgt=          11           1           1           1
 AtmWgt=  11.0093053   1.0078250   1.0078250   1.0078250
 NucSpn=           3           1           1           1
 AtZEff=   0.0000000   0.0000000   0.0000000   0.0000000
 NQMom=    4.0590000   0.0000000   0.0000000   0.0000000
 NMagM=    2.6886370   2.7928460   2.7928460   2.7928460
 AtZNuc=   5.0000000   1.0000000   1.0000000   1.0000000
 Leave Link  101 at Wed Jan 24 15:18:03 2018, MaxMem=   536870912 cpu:         0.3
 (Enter /home/chemsoft/gaussian/g09e01/g09/l103.exe)

 GradGradGradGradGradGradGradGradGradGradGradGradGradGradGradGradGradGrad
 Berny optimization.
 Initialization pass.
                           ----------------------------
                           !    Initial Parameters    !
                           ! (Angstroms and Degrees)  !
 --------------------------                            --------------------------
 ! Name  Definition              Value          Derivative Info.                !
 --------------------------------------------------------------------------------
 ! R1    R(1,2)                  1.018          estimate D2E/DX2                !
 ! R2    R(1,3)                  1.018          estimate D2E/DX2                !
 ! R3    R(1,4)                  1.018          estimate D2E/DX2                !
 ! A1    A(2,1,3)              105.7458         estimate D2E/DX2                !
 ! A2    A(2,1,4)              105.7458         estimate D2E/DX2                !
 ! A3    A(3,1,4)              105.7458         estimate D2E/DX2                !
 ! D1    D(2,1,4,3)           -111.8661         estimate D2E/DX2                !
 --------------------------------------------------------------------------------
 Trust Radius=1.00D-01 FncErr=1.00D-07 GrdErr=1.00D-06
 Number of steps in this run=    100 maximum allowed number of steps=    100.
 GradGradGradGradGradGradGradGradGradGradGradGradGradGradGradGradGradGrad

 Leave Link  103 at Wed Jan 24 15:18:03 2018, MaxMem=   536870912 cpu:         0.0
 (Enter /home/chemsoft/gaussian/g09e01/g09/l202.exe)
                          Input orientation:                          
 ---------------------------------------------------------------------
 Center     Atomic      Atomic             Coordinates (Angstroms)
 Number     Number       Type             X           Y           Z
 ---------------------------------------------------------------------
      1          5           0        0.000000    0.000000   -0.070572
      2          1           0       -0.937180    0.000000    0.326851
      3          1           0        0.468590    0.811621    0.326851
      4          1           0        0.468590   -0.811621    0.326851
 ---------------------------------------------------------------------
                    Distance matrix (angstroms):
                    1          2          3          4
     1  B    0.000000
     2  H    1.017964   0.000000
     3  H    1.017964   1.623243   0.000000
     4  H    1.017964   1.623243   1.623243   0.000000
 Stoichiometry    BH3
 Framework group  C3V[C3(B),3SGV(H)]
 Deg. of freedom     2
 Full point group                 C3V     NOp   6
 Largest Abelian subgroup         CS      NOp   2
 Largest concise Abelian subgroup CS      NOp   2
                         Standard orientation:                         
 ---------------------------------------------------------------------
 Center     Atomic      Atomic             Coordinates (Angstroms)
 Number     Number       Type             X           Y           Z
 ---------------------------------------------------------------------
      1          5           0        0.000000    0.000000    0.149034
      2          1           0        0.000000    0.937180   -0.248389
      3          1           0       -0.811621   -0.468590   -0.248389
      4          1           0        0.811621   -0.468590   -0.248389
 ---------------------------------------------------------------------
 Rotational constants (GHZ):    296.8591756    296.8591756    190.3115482
 Leave Link  202 at Wed Jan 24 15:18:03 2018, MaxMem=   536870912 cpu:         0.0
 (Enter /home/chemsoft/gaussian/g09e01/g09/l301.exe)
 Standard basis: def2SVP (5D, 7F)
 ======================================================================================================
                                       Pseudopotential Parameters
 ======================================================================================================
  Center     Atomic      Valence      Angular      Power
  Number     Number     Electrons     Momentum     of R      Exponent        Coefficient   SO-Coeffient
 ======================================================================================================
    1          5
                                   No pseudopotential on this center.
    2          1
                                   No pseudopotential on this center.
    3          1
                                   No pseudopotential on this center.
    4          1
                                   No pseudopotential on this center.
 ======================================================================================================
 Ernie: Thresh=  0.10000D-02 Tol=  0.10000D-05 Strict=F.
 AO basis set in the form of general basis input (Overlap normalization):
      1 0
 S   5 1.00       0.000000000000
      0.8393183009D+03 -0.5628883598D-02
      0.1262646484D+03 -0.4183279461D-01
      0.2862060076D+02 -0.1841748813D+00
      0.7879372271D+01 -0.4683965503D+00
      0.2408885717D+01 -0.4445793088D+00
 S   1 1.00       0.000000000000
      0.2510510904D+00  0.1000000000D+01
 S   1 1.00       0.000000000000
      0.8364886607D-01  0.1000000000D+01
 P   3 1.00       0.000000000000
      0.6033222362D+01 -0.5403250032D-01
      0.1249915787D+01 -0.3019403439D+00
      0.3387167635D+00 -0.7717079166D+00
 P   1 1.00       0.000000000000
      0.9641563235D-01  0.1000000000D+01
 D   1 1.00       0.000000000000
      0.5000000000D+00  0.1000000000D+01
 ****
      2 0
 S   3 1.00       0.000000000000
      0.1301070100D+02  0.3348548481D-01
      0.1962257200D+01  0.2347218709D+00
      0.4445379600D+00  0.8137702853D+00
 S   1 1.00       0.000000000000
      0.1219496200D+00  0.1000000000D+01
 P   1 1.00       0.000000000000
      0.8000000000D+00  0.1000000000D+01
 ****
      3 0
 S   3 1.00       0.000000000000
      0.1301070100D+02  0.3348548481D-01
      0.1962257200D+01  0.2347218709D+00
      0.4445379600D+00  0.8137702853D+00
 S   1 1.00       0.000000000000
      0.1219496200D+00  0.1000000000D+01
 P   1 1.00       0.000000000000
      0.8000000000D+00  0.1000000000D+01
 ****
      4 0
 S   3 1.00       0.000000000000
      0.1301070100D+02  0.3348548481D-01
      0.1962257200D+01  0.2347218709D+00
      0.4445379600D+00  0.8137702853D+00
 S   1 1.00       0.000000000000
      0.1219496200D+00  0.1000000000D+01
 P   1 1.00       0.000000000000
      0.8000000000D+00  0.1000000000D+01
 ****

 ***********************************************************************************************************************************
 *             ATOMIC CENTER             *        ATOMIC ORBITAL       *                     GAUSSIAN FUNCTIONS                    *
 ***********************************************************************************************************************************
 *                                       * FUNCTION    SHELL    SCALE  *                                                           *
 *    ATOM   X-COORD  Y-COORD  Z-COORD   *  NUMBER     TYPE     FACTOR *  EXPONENT    S-COEF      P-COEF      D-COEF      F-COEF   *
 ***********************************************************************************************************************************
 *     B      0.00000  0.00000  0.28163                                                                                            *
+                                                1   S           1.00                                                               
+                                                                      0.839318D+03-.625572D+000.000000D+000.000000D+000.000000D+00 
 *                                                                     0.126265D+03-.112302D+010.000000D+000.000000D+000.000000D+00*
 *                                                                     0.286206D+02-.162424D+010.000000D+000.000000D+000.000000D+00*
 *                                                                     0.787937D+01-.156997D+010.000000D+000.000000D+000.000000D+00*
 *                                                                     0.240889D+01-.612663D+000.000000D+000.000000D+000.000000D+00*
 *                                               2   S           1.00                                                              *
+                                                                      0.251051D+000.252774D+000.000000D+000.000000D+000.000000D+00 
 *                                               3   S           1.00                                                              *
+                                                                      0.836489D-010.110855D+000.000000D+000.000000D+000.000000D+00 
 *                                           4-  6   P           1.00                                                              *
+                                                                      0.603322D+010.000000D+00-.728252D+000.000000D+000.000000D+00 
 *                                                                     0.124992D+010.000000D+00-.568803D+000.000000D+000.000000D+00*
 *                                                                     0.338717D+000.000000D+00-.284242D+000.000000D+000.000000D+00*
 *                                           7-  9   P           1.00                                                              *
+                                                                      0.964156D-010.000000D+000.765816D-010.000000D+000.000000D+00 
 *                                          10- 14   D           1.00                                                              *
+                                                                      0.500000D+000.000000D+000.000000D+000.489336D+000.000000D+00 
 *---------------------------------------------------------------------------------------------------------------------------------*
 *     H      0.00000  1.77101 -0.46939                                                                                            *
+                                               15   S           1.00                                                               
+                                                                      0.130107D+020.163490D+000.000000D+000.000000D+000.000000D+00 
 *                                                                     0.196226D+010.277352D+000.000000D+000.000000D+000.000000D+00*
 *                                                                     0.444538D+000.315750D+000.000000D+000.000000D+000.000000D+00*
 *                                              16   S           1.00                                                              *
+                                                                      0.121950D+000.147077D+000.000000D+000.000000D+000.000000D+00 
 *                                          17- 19   P           1.00                                                              *
+                                                                      0.800000D+000.000000D+000.107846D+010.000000D+000.000000D+00 
 *---------------------------------------------------------------------------------------------------------------------------------*
 *     H     -1.53374 -0.88551 -0.46939                                                                                            *
+                                               20   S           1.00                                                               
+                                                                      0.130107D+020.163490D+000.000000D+000.000000D+000.000000D+00 
 *                                                                     0.196226D+010.277352D+000.000000D+000.000000D+000.000000D+00*
 *                                                                     0.444538D+000.315750D+000.000000D+000.000000D+000.000000D+00*
 *                                              21   S           1.00                                                              *
+                                                                      0.121950D+000.147077D+000.000000D+000.000000D+000.000000D+00 
 *                                          22- 24   P           1.00                                                              *
+                                                                      0.800000D+000.000000D+000.107846D+010.000000D+000.000000D+00 
 *---------------------------------------------------------------------------------------------------------------------------------*
 *     H      1.53374 -0.88551 -0.46939                                                                                            *
+                                               25   S           1.00                                                               
+                                                                      0.130107D+020.163490D+000.000000D+000.000000D+000.000000D+00 
 *                                                                     0.196226D+010.277352D+000.000000D+000.000000D+000.000000D+00*
 *                                                                     0.444538D+000.315750D+000.000000D+000.000000D+000.000000D+00*
 *                                              26   S           1.00                                                              *
+                                                                      0.121950D+000.147077D+000.000000D+000.000000D+000.000000D+00 
 *                                          27- 29   P           1.00                                                              *
+                                                                      0.800000D+000.000000D+000.107846D+010.000000D+000.000000D+00 
 ***********************************************************************************************************************************
 There are    20 symmetry adapted cartesian basis functions of A'  symmetry.
 There are    10 symmetry adapted cartesian basis functions of A"  symmetry.
 There are    19 symmetry adapted basis functions of A'  symmetry.
 There are    10 symmetry adapted basis functions of A"  symmetry.
    29 basis functions,    46 primitive gaussians,    30 cartesian basis functions
     4 alpha electrons        4 beta electrons
       nuclear repulsion energy         8.7755827418 Hartrees.
 IExCor= 1009 DFT=T Ex=PBE Corr=PBE ExCW=0 ScaHFX=  0.000000
 ScaDFX=  1.000000  1.000000  1.000000  1.000000 ScalE2=  1.000000  1.000000
 IRadAn=      5 IRanWt=     -1 IRanGd=            0 ICorTp=0 IEmpDi=  4
 NAtoms=    4 NActive=    4 NUniq=    2 SFac= 4.00D+00 NAtFMM=   60 NAOKFM=F Big=F
 Integral buffers will be    131072 words long.
 Raffenetti 2 integral format.
 Two-electron integral symmetry is turned on.
 Standard density basis: W06 (5D, 7F)
    82 Density fitting functions
 Density basis set in the form of general basis input (Coulomb normalization):
      1 0
 S   7 1.00       0.000000000000
      0.1322201672D+04  0.1533845092D-02
      0.4582370653D+03  0.5602018072D-02
      0.1680023641D+03  0.3186812516D-01
      0.6495776900D+02  0.1195515625D+00
      0.2638718560D+02  0.3174086192D+00
      0.1121086110D+02  0.4163043412D+00
      0.4955446000D+01  0.1476518035D+00
 S   1 1.00       0.000000000000
      0.2265282500D+01 -0.1000000000D+01
 S   1 1.00       0.000000000000
      0.1063808600D+01  0.1000000000D+01
 S   1 1.00       0.000000000000
      0.5095187000D+00  0.1000000000D+01
 S   1 1.00       0.000000000000
      0.2469859000D+00  0.1000000000D+01
 S   1 1.00       0.000000000000
      0.1202089000D+00  0.1000000000D+01
 P   2 1.00       0.000000000000
      0.9356073600D+01 -0.4402070956D+00
      0.3974313100D+01 -0.5918247809D+00
 P   1 1.00       0.000000000000
      0.1664514700D+01  0.1000000000D+01
 P   1 1.00       0.000000000000
      0.6913035000D+00 -0.1000000000D+01
 P   1 1.00       0.000000000000
      0.2863135000D+00  0.1000000000D+01
 D   2 1.00       0.000000000000
      0.2112031300D+01  0.2593317607D+00
      0.7780769000D+00  0.7591984630D+00
 D   1 1.00       0.000000000000
      0.3277101000D+00  0.1000000000D+01
 D   1 1.00       0.000000000000
      0.1449465000D+00  0.1000000000D+01
 F   2 1.00       0.000000000000
      0.1058271800D+01  0.6309763349D+00
      0.4010000000D+00  0.4234377755D+00
 G   1 1.00       0.000000000000
      0.6514300000D+00 -0.1000000000D+01
 ****
      2 0
 S   3 1.00       0.000000000000
      0.1567529270D+02  0.3261158972D-01
      0.3606357800D+01  0.2298046837D+00
      0.1208001600D+01  0.7572083240D+00
 S   1 1.00       0.000000000000
      0.4726794000D+00  0.1000000000D+01
 S   1 1.00       0.000000000000
      0.2018100000D+00  0.1000000000D+01
 P   2 1.00       0.000000000000
      0.2028136500D+01  0.3618361986D+00
      0.5358730000D+00  0.7039303088D+00
 D   1 1.00       0.000000000000
      0.2216512400D+01  0.1000000000D+01
 ****
      3 0
 S   3 1.00       0.000000000000
      0.1567529270D+02  0.3261158972D-01
      0.3606357800D+01  0.2298046837D+00
      0.1208001600D+01  0.7572083240D+00
 S   1 1.00       0.000000000000
      0.4726794000D+00  0.1000000000D+01
 S   1 1.00       0.000000000000
      0.2018100000D+00  0.1000000000D+01
 P   2 1.00       0.000000000000
      0.2028136500D+01  0.3618361986D+00
      0.5358730000D+00  0.7039303088D+00
 D   1 1.00       0.000000000000
      0.2216512400D+01  0.1000000000D+01
 ****
      4 0
 S   3 1.00       0.000000000000
      0.1567529270D+02  0.3261158972D-01
      0.3606357800D+01  0.2298046837D+00
      0.1208001600D+01  0.7572083240D+00
 S   1 1.00       0.000000000000
      0.4726794000D+00  0.1000000000D+01
 S   1 1.00       0.000000000000
      0.2018100000D+00  0.1000000000D+01
 P   2 1.00       0.000000000000
      0.2028136500D+01  0.3618361986D+00
      0.5358730000D+00  0.7039303088D+00
 D   1 1.00       0.000000000000
      0.2216512400D+01  0.1000000000D+01
 ****

 There are    82 symmetry adapted density basis functions of A   symmetry.
 Leave Link  301 at Wed Jan 24 15:18:03 2018, MaxMem=   536870912 cpu:         0.2
 (Enter /home/chemsoft/gaussian/g09e01/g09/l302.exe)
 NPDir=0 NMtPBC=     1 NCelOv=     1 NCel=       1 NClECP=     1 NCelD=      1
         NCelK=      1 NCelE2=     1 NClLst=     1 CellRange=     0.0.
 One-electron integrals computed using PRISM.
 One-electron integral symmetry used in STVInt
   6 Symmetry operations used in ECPInt.
 ECPInt:  NShTT=     120 NPrTT=     400 LenC2=     121 LenP2D=     397.
 LDataN:  DoStor=T MaxTD1= 4 Len=   56
 NBasis=    29 RedAO= T EigKep=  5.59D-03  NBF=    19    10
 NBsUse=    29 1.00D-06 EigRej= -1.00D+00 NBFU=    19    10
 NBasis=       29 NBas6D=       30 NTT=         435   NTT6D=      465
 NDBShl=       30 NDBF=         82 NDBF6D=       97  NNucDB=        0
 IDenFi=        2 ISolve=        0 FullAP=F BlkAPC=T NucTyp=        0
 TolInv= 1.00D-06 TolIt=  1.00D-10 IR12=0.
 FoFCou: FMM=F IPFlag=           0 FMFlag=           0 FMFlg1=           0
         NFxFlg=           0 DoJE=F BraDBF=T KetDBF=T FulRan=T
         wScrn=  0.000000 ICntrl=     600 IOpCl=  3 I1Cent=           6 NGrid=           0
         NMat0=    1 NMatS0=     97 NMatT0=    0 NMatD0=    1 NMtDS0=    0 NMtDT0=    0
 Petite list used in FoFCou.
 DBF EigKep=  1.93D-04 EigRej= -1.00D+00
 NDBF=     82  NBFD=    82
 NRank=    82 NBFDU=    82
 S*AI*S=  5.45769669563    
 Precomputing XC quadrature grid using
 IXCGrd= 4 IRadAn=           5 IRanWt=          -1 IRanGd=           0 AccXCQ= 0.00D+00.
 Generated NRdTot=       0 NPtTot=           0 NUsed=           0 NTot=          32
 NSgBfM=    30    30    30    30    30 MxSgAt=     4 MxSgA2=     4.
 Leave Link  302 at Wed Jan 24 15:18:04 2018, MaxMem=   536870912 cpu:         0.4
 (Enter /home/chemsoft/gaussian/g09e01/g09/l303.exe)
 DipDrv:  MaxL=1.
 Leave Link  303 at Wed Jan 24 15:18:04 2018, MaxMem=   536870912 cpu:         0.1
 (Enter /home/chemsoft/gaussian/g09e01/g09/l401.exe)
 ExpMin= 8.36D-02 ExpMax= 8.39D+02 ExpMxC= 1.26D+02 IAcc=3 IRadAn=         5 AccDes= 0.00D+00
 Harris functional with IExCor= 1009 and IRadAn=       5 diagonalized for initial guess.
 HarFok:  IExCor= 1009 AccDes= 0.00D+00 IRadAn=         5 IDoV= 1 UseB2=F ITyADJ=14
 ICtDFT=  3500011 ScaDFX=  1.000000  1.000000  1.000000  1.000000
 FoFCou: FMM=F IPFlag=           0 FMFlag=      100000 FMFlg1=           0
         NFxFlg=           0 DoJE=T BraDBF=F KetDBF=T FulRan=T
         wScrn=  0.000000 ICntrl=     500 IOpCl=  0 I1Cent=   200000004 NGrid=           0
         NMat0=    1 NMatS0=      1 NMatT0=    0 NMatD0=    1 NMtDS0=    0 NMtDT0=    0
 Petite list used in FoFCou.
 Harris En= -26.5002138389445    
 JPrj=0 DoOrth=F DoCkMO=F.
 Initial guess orbital symmetries:
       Occupied  (A1) (A1) (E) (E)
       Virtual   (A1) (A1) (E) (E) (E) (E) (A1) (A1) (E) (E) (E)
                 (E) (A1) (A1) (A2) (E) (E) (E) (E) (A1) (E) (E)
                 (A1) (E) (E)
 The electronic state of the initial guess is 1-A1.
 Leave Link  401 at Wed Jan 24 15:18:04 2018, MaxMem=   536870912 cpu:         0.4
 (Enter /home/chemsoft/gaussian/g09e01/g09/l502.exe)
 Closed shell SCF:
 Density fitting will be used, IDenFit= 2 NucTyp=  0.
 Using DIIS extrapolation, IDIIS=  1040.
 Integral symmetry usage will be decided dynamically.
 IVT=      257426 IEndB=      257426 NGot=   536870912 MDV=   536865417
 LenX=   536865417 LenY=   536864076
 Requested convergence on RMS density matrix=1.00D-08 within 500 cycles.
 Requested convergence on MAX density matrix=1.00D-06.
 Requested convergence on             energy=1.00D-06.
 No special actions if energy rises.
 Fock matrices will be formed incrementally for  20 cycles.

 Cycle   1  Pass 0  IDiag  1:
 FoFCou: FMM=F IPFlag=           0 FMFlag=      100000 FMFlg1=           0
         NFxFlg=           0 DoJE=T BraDBF=T KetDBF=F FulRan=T
         wScrn=  0.000000 ICntrl=     500 IOpCl=  0 I1Cent=           5 NGrid=           0
         NMat0=    1 NMatS0=      1 NMatT0=    0 NMatD0=    1 NMtDS0=    0 NMtDT0=    0
 Petite list used in FoFCou.
 FoFJK:  IHMeth= 1 ICntrl=     500 DoSepK=F KAlg= 0 I1Cent=   4 FoldK=F
 IRaf= 990000000 NMat=   1 IRICut=       1 DoRegI=T DoRafI=F ISym2E= 1.
 E= -26.3529568354962    
 DIIS: error= 2.98D-02 at cycle   1 NSaved=   1.
 NSaved= 1 IEnMin= 1 EnMin= -26.3529568354962     IErMin= 1 ErrMin= 2.98D-02
 ErrMax= 2.98D-02  0.00D+00 EMaxC= 1.00D-01 BMatC= 2.85D-02 BMatP= 2.85D-02
 IDIUse=3 WtCom= 7.02D-01 WtEn= 2.98D-01
 Coeff-Com:  0.100D+01
 Coeff-En:   0.100D+01
 Coeff:      0.100D+01
 Gap=     0.131 Goal=   None    Shift=    0.000
 GapD=    0.131 DampG=1.000 DampE=0.500 DampFc=0.5000 IDamp=-1.
 Damping current iteration by 5.00D-01
 RMSDP=1.12D-02 MaxDP=7.22D-02              OVMax= 1.88D-01

 Cycle   2  Pass 0  IDiag  1:
 RMSU=  5.15D-03    CP:  9.54D-01
 E= -26.3792506370181     Delta-E=       -0.026293801522 Rises=F Damp=T
 DIIS: error= 4.09D-03 at cycle   2 NSaved=   2.
 NSaved= 2 IEnMin= 2 EnMin= -26.3792506370181     IErMin= 2 ErrMin= 4.09D-03
 ErrMax= 4.09D-03  0.00D+00 EMaxC= 1.00D-01 BMatC= 7.55D-04 BMatP= 2.85D-02
 IDIUse=3 WtCom= 9.59D-01 WtEn= 4.09D-02
 Coeff-Com: -0.140D+00 0.114D+01
 Coeff-En:   0.000D+00 0.100D+01
 Coeff:     -0.135D+00 0.113D+01
 Gap=     0.161 Goal=   None    Shift=    0.000
 RMSDP=1.46D-03 MaxDP=9.32D-03 DE=-2.63D-02 OVMax= 8.94D-02

 Cycle   3  Pass 0  IDiag  1:
 RMSU=  1.17D-03    CP:  9.50D-01  1.17D+00
 E= -26.4025329570813     Delta-E=       -0.023282320063 Rises=F Damp=F
 DIIS: error= 1.11D-03 at cycle   3 NSaved=   3.
 NSaved= 3 IEnMin= 3 EnMin= -26.4025329570813     IErMin= 3 ErrMin= 1.11D-03
 ErrMax= 1.11D-03  0.00D+00 EMaxC= 1.00D-01 BMatC= 2.08D-05 BMatP= 7.55D-04
 IDIUse=3 WtCom= 9.89D-01 WtEn= 1.11D-02
 Coeff-Com: -0.380D-01 0.140D+00 0.898D+00
 Coeff-En:   0.000D+00 0.000D+00 0.100D+01
 Coeff:     -0.376D-01 0.139D+00 0.899D+00
 Gap=     0.163 Goal=   None    Shift=    0.000
 RMSDP=1.95D-04 MaxDP=1.28D-03 DE=-2.33D-02 OVMax= 3.42D-03

 Cycle   4  Pass 0  IDiag  1:
 RMSU=  1.26D-04    CP:  9.50D-01  1.18D+00  8.98D-01
 E= -26.4025624431213     Delta-E=       -0.000029486040 Rises=F Damp=F
 DIIS: error= 2.24D-04 at cycle   4 NSaved=   4.
 NSaved= 4 IEnMin= 4 EnMin= -26.4025624431213     IErMin= 4 ErrMin= 2.24D-04
 ErrMax= 2.24D-04  0.00D+00 EMaxC= 1.00D-01 BMatC= 8.17D-07 BMatP= 2.08D-05
 IDIUse=3 WtCom= 9.98D-01 WtEn= 2.24D-03
 Coeff-Com: -0.154D-01 0.493D-01 0.333D+00 0.633D+00
 Coeff-En:   0.000D+00 0.000D+00 0.000D+00 0.100D+01
 Coeff:     -0.154D-01 0.492D-01 0.332D+00 0.634D+00
 Gap=     0.163 Goal=   None    Shift=    0.000
 RMSDP=4.40D-05 MaxDP=3.98D-04 DE=-2.95D-05 OVMax= 4.78D-04

 Cycle   5  Pass 0  IDiag  1:
 RMSU=  3.33D-05    CP:  9.49D-01  1.19D+00  9.07D-01  8.72D-01
 E= -26.4025637199313     Delta-E=       -0.000001276810 Rises=F Damp=F
 DIIS: error= 4.96D-05 at cycle   5 NSaved=   5.
 NSaved= 5 IEnMin= 5 EnMin= -26.4025637199313     IErMin= 5 ErrMin= 4.96D-05
 ErrMax= 4.96D-05  0.00D+00 EMaxC= 1.00D-01 BMatC= 4.79D-08 BMatP= 8.17D-07
 IDIUse=1 WtCom= 1.00D+00 WtEn= 0.00D+00
 Coeff-Com: -0.267D-02 0.447D-02 0.379D-01 0.178D+00 0.782D+00
 Coeff:     -0.267D-02 0.447D-02 0.379D-01 0.178D+00 0.782D+00
 Gap=     0.163 Goal=   None    Shift=    0.000
 RMSDP=7.93D-06 MaxDP=7.54D-05 DE=-1.28D-06 OVMax= 1.49D-04

 Initial convergence to 1.0D-05 achieved.  Increase integral accuracy.
 Cycle   6  Pass 1  IDiag  1:
 E= -26.4025632744799     Delta-E=        0.000000445451 Rises=F Damp=F
 DIIS: error= 2.35D-06 at cycle   1 NSaved=   1.
 NSaved= 1 IEnMin= 1 EnMin= -26.4025632744799     IErMin= 1 ErrMin= 2.35D-06
 ErrMax= 2.35D-06  0.00D+00 EMaxC= 1.00D-01 BMatC= 1.39D-10 BMatP= 1.39D-10
 IDIUse=1 WtCom= 1.00D+00 WtEn= 0.00D+00
 Coeff-Com:  0.100D+01
 Coeff:      0.100D+01
 Gap=     0.163 Goal=   None    Shift=    0.000
 RMSDP=7.93D-06 MaxDP=7.54D-05 DE= 4.45D-07 OVMax= 1.34D-05

 Cycle   7  Pass 1  IDiag  1:
 RMSU=  9.02D-07    CP:  1.00D+00
 E= -26.4025632746142     Delta-E=       -0.000000000134 Rises=F Damp=F
 DIIS: error= 1.81D-06 at cycle   2 NSaved=   2.
 NSaved= 2 IEnMin= 2 EnMin= -26.4025632746142     IErMin= 2 ErrMin= 1.81D-06
 ErrMax= 1.81D-06  0.00D+00 EMaxC= 1.00D-01 BMatC= 7.23D-11 BMatP= 1.39D-10
 IDIUse=1 WtCom= 1.00D+00 WtEn= 0.00D+00
 Coeff-Com:  0.413D+00 0.587D+00
 Coeff:      0.413D+00 0.587D+00
 Gap=     0.163 Goal=   None    Shift=    0.000
 RMSDP=3.42D-07 MaxDP=3.25D-06 DE=-1.34D-10 OVMax= 4.53D-06

 Cycle   8  Pass 1  IDiag  1:
 RMSU=  1.61D-07    CP:  1.00D+00  6.82D-01
 E= -26.4025632747275     Delta-E=       -0.000000000113 Rises=F Damp=F
 DIIS: error= 6.88D-08 at cycle   3 NSaved=   3.
 NSaved= 3 IEnMin= 3 EnMin= -26.4025632747275     IErMin= 3 ErrMin= 6.88D-08
 ErrMax= 6.88D-08  0.00D+00 EMaxC= 1.00D-01 BMatC= 1.12D-13 BMatP= 7.23D-11
 IDIUse=1 WtCom= 1.00D+00 WtEn= 0.00D+00
 Coeff-Com: -0.605D-03 0.330D-01 0.968D+00
 Coeff:     -0.605D-03 0.330D-01 0.968D+00
 Gap=     0.163 Goal=   None    Shift=    0.000
 RMSDP=2.04D-08 MaxDP=1.82D-07 DE=-1.13D-10 OVMax= 1.81D-07

 Cycle   9  Pass 1  IDiag  1:
 RMSU=  9.65D-09    CP:  1.00D+00  7.01D-01  9.94D-01
 E= -26.4025632747277     Delta-E=       -0.000000000000 Rises=F Damp=F
 DIIS: error= 1.48D-08 at cycle   4 NSaved=   4.
 NSaved= 4 IEnMin= 4 EnMin= -26.4025632747277     IErMin= 4 ErrMin= 1.48D-08
 ErrMax= 1.48D-08  0.00D+00 EMaxC= 1.00D-01 BMatC= 5.61D-15 BMatP= 1.12D-13
 IDIUse=1 WtCom= 1.00D+00 WtEn= 0.00D+00
 Coeff-Com: -0.717D-03 0.876D-02 0.295D+00 0.697D+00
 Coeff:     -0.717D-03 0.876D-02 0.295D+00 0.697D+00
 Gap=     0.163 Goal=   None    Shift=    0.000
 RMSDP=3.82D-09 MaxDP=3.15D-08 DE=-1.71D-13 OVMax= 6.32D-08

 SCF Done:  E(RPBE-PBE) =  -26.4025632747     A.U. after    9 cycles
            NFock=  9  Conv=0.38D-08     -V/T= 1.9858
 KE= 2.678197505171D+01 PE=-7.821003156318D+01 EE= 1.624991049489D+01
 Leave Link  502 at Wed Jan 24 15:18:10 2018, MaxMem=   536870912 cpu:         5.4
 (Enter /home/chemsoft/gaussian/g09e01/g09/l508.exe)
 QCSCF skips out because SCF is already converged.
 Leave Link  508 at Wed Jan 24 15:18:10 2018, MaxMem=   536870912 cpu:         0.0
 (Enter /home/chemsoft/gaussian/g09e01/g09/l601.exe)
 Copying SCF densities to generalized density rwf, IOpCl= 0 IROHF=0.

 **********************************************************************

            Population analysis using the SCF density.

 **********************************************************************

 Orbital symmetries:
       Occupied  (A1) (A1) (E) (E)
       Virtual   (A1) (A1) (E) (E) (E) (E) (A1) (A1) (E) (E) (E)
                 (E) (A1) (A1) (A2) (E) (E) (E) (E) (A1) (E) (E)
                 (A1) (E) (E)
 The electronic state is 1-A1.
 Alpha  occ. eigenvalues --   -6.49895  -0.49460  -0.30211  -0.30211
 Alpha virt. eigenvalues --   -0.13923   0.13463   0.14250   0.14250   0.23738
 Alpha virt. eigenvalues --    0.23738   0.27434   0.27818   0.66638   0.66638
 Alpha virt. eigenvalues --    0.86636   0.86636   0.88000   1.15835   1.55822
 Alpha virt. eigenvalues --    1.60541   1.60541   1.68163   1.68163   2.07898
 Alpha virt. eigenvalues --    2.22214   2.22214   2.70401   2.94708   2.94708
     Molecular Orbital Coefficients:
                           1         2         3         4         5
                        (A1)--O   (A1)--O   (E)--O    (E)--O    (A1)--V
     Eigenvalues --    -6.49895  -0.49460  -0.30211  -0.30211  -0.13923
   1 1   B  1S          0.98899   0.25166  -0.00000   0.00000  -0.08262
   2        2S         -0.03214   0.37555  -0.00000   0.00000  -0.20607
   3        3S          0.00993   0.22737  -0.00000   0.00000  -0.30287
   4        4PX         0.00000   0.00000   0.00000   0.45786   0.00000
   5        4PY        -0.00000   0.00000   0.45786   0.00000   0.00000
   6        4PZ         0.00407   0.07138  -0.00000   0.00000   0.54270
   7        5PX         0.00000   0.00000   0.00000  -0.14922   0.00000
   8        5PY        -0.00000   0.00000  -0.14922   0.00000  -0.00000
   9        5PZ         0.00255  -0.02522   0.00000   0.00000  -0.44670
  10        6D 0       -0.00009   0.00536   0.00000   0.00000   0.00635
  11        6D+1        0.00000   0.00000   0.00000   0.01032   0.00000
  12        6D-1        0.00000  -0.00000   0.01032   0.00000   0.00000
  13        6D+2        0.00000  -0.00000   0.01463   0.00000  -0.00000
  14        6D-2        0.00000   0.00000   0.00000   0.01463   0.00000
  15 2   H  1S         -0.00091   0.25052  -0.37137   0.00000   0.07846
  16        2S          0.00065   0.00039  -0.13759   0.00000   0.03087
  17        3PX         0.00000   0.00000   0.00000  -0.01113   0.00000
  18        3PY         0.00432  -0.03105   0.01488   0.00000  -0.00705
  19        3PZ        -0.00162   0.01117  -0.01091   0.00000  -0.01526
  20 3   H  1S         -0.00091   0.25052   0.18569   0.32162   0.07846
  21        2S          0.00065   0.00039   0.06880   0.11916   0.03087
  22        3PX        -0.00374   0.02689   0.01127   0.00838   0.00610
  23        3PY        -0.00216   0.01552  -0.00463   0.01127   0.00352
  24        3PZ        -0.00162   0.01117   0.00546   0.00945  -0.01526
  25 4   H  1S         -0.00091   0.25052   0.18569  -0.32162   0.07846
  26        2S          0.00065   0.00039   0.06880  -0.11916   0.03087
  27        3PX         0.00374  -0.02689  -0.01127   0.00838  -0.00610
  28        3PY        -0.00216   0.01552  -0.00463  -0.01127   0.00352
  29        3PZ        -0.00162   0.01117   0.00546  -0.00945  -0.01526
                           6         7         8         9        10
                        (A1)--V   (E)--V    (E)--V    (E)--V    (E)--V
     Eigenvalues --     0.13463   0.14250   0.14250   0.23738   0.23738
   1 1   B  1S         -0.17749   0.00000  -0.00000  -0.00000   0.00000
   2        2S         -0.97832   0.00000  -0.00000  -0.00000   0.00000
   3        3S          5.29348   0.00000   0.00000  -0.00000   0.00000
   4        4PX         0.00000  -0.06428   0.00000   0.00000  -0.77184
   5        4PY        -0.00000   0.00000   0.06428   0.77184   0.00000
   6        4PZ        -0.02840   0.00000  -0.00000   0.00000   0.00000
   7        5PX         0.00000   2.34839   0.00000   0.00000  -0.09963
   8        5PY         0.00000   0.00000  -2.34839   0.09963   0.00000
   9        5PZ        -1.26894   0.00000  -0.00000   0.00000   0.00000
  10        6D 0        0.01445   0.00000   0.00000  -0.00000   0.00000
  11        6D+1        0.00000   0.03376   0.00000   0.00000   0.02072
  12        6D-1        0.00000   0.00000  -0.03376  -0.02072   0.00000
  13        6D+2        0.00000   0.00000  -0.04464  -0.01801   0.00000
  14        6D-2        0.00000   0.04464   0.00000   0.00000   0.01801
  15 2   H  1S         -0.09340   0.00000   0.20654  -0.22443   0.00000
  16        2S         -1.64043   0.00000   2.49835   1.35766   0.00000
  17        3PX         0.00000   0.01657   0.00000   0.00000   0.02124
  18        3PY         0.01155   0.00000  -0.00196   0.01661   0.00000
  19        3PZ        -0.00905   0.00000  -0.00660  -0.01359   0.00000
  20 3   H  1S         -0.09340   0.17887  -0.10327   0.11221  -0.19436
  21        2S         -1.64043   2.16364  -1.24918  -0.67883   1.17576
  22        3PX        -0.01001   0.00561   0.00632   0.01639  -0.00715
  23        3PY        -0.00578  -0.00632  -0.01291  -0.01178  -0.01639
  24        3PZ        -0.00905  -0.00572   0.00330   0.00680  -0.01177
  25 4   H  1S         -0.09340  -0.17887  -0.10327   0.11221   0.19436
  26        2S         -1.64043  -2.16364  -1.24918  -0.67883  -1.17576
  27        3PX         0.01001   0.00561  -0.00632  -0.01639  -0.00715
  28        3PY        -0.00578   0.00632  -0.01291  -0.01178   0.01639
  29        3PZ        -0.00905   0.00572   0.00330   0.00680   0.01177
                          11        12        13        14        15
                        (A1)--V   (A1)--V   (E)--V    (E)--V    (E)--V
     Eigenvalues --     0.27434   0.27818   0.66638   0.66638   0.86636
   1 1   B  1S          0.18176   0.11940   0.00000   0.00000  -0.00000
   2        2S          1.12995   0.85824   0.00000   0.00000  -0.00000
   3        3S          3.68712   6.66105   0.00000  -0.00000   0.00000
   4        4PX         0.00000   0.00000   0.53082   0.00000   0.00000
   5        4PY         0.00000   0.00000   0.00000  -0.53082  -0.09421
   6        4PZ        -0.67960   0.63718   0.00000   0.00000  -0.00000
   7        5PX         0.00000   0.00000   1.69191   0.00000   0.00000
   8        5PY        -0.00000  -0.00000   0.00000  -1.69191  -0.07229
   9        5PZ        -2.02081  -1.25009   0.00000   0.00000  -0.00000
  10        6D 0        0.02729   0.04731   0.00000   0.00000  -0.00000
  11        6D+1        0.00000   0.00000  -0.28819   0.00000   0.00000
  12        6D-1       -0.00000  -0.00000   0.00000   0.28819   0.61033
  13        6D+2       -0.00000  -0.00000   0.00000   0.38313  -0.43333
  14        6D-2        0.00000   0.00000  -0.38313   0.00000   0.00000
  15 2   H  1S         -0.07978   0.05487   0.00000  -0.72365  -0.06339
  16        2S         -1.87168  -3.08139   0.00000   2.54408   0.14341
  17        3PX         0.00000   0.00000  -0.08351   0.00000   0.00000
  18        3PY         0.01073  -0.01301   0.00000  -0.16371   0.04777
  19        3PZ         0.00376  -0.02742   0.00000   0.09129   0.17747
  20 3   H  1S         -0.07978   0.05487  -0.62670   0.36183   0.03169
  21        2S         -1.87168  -3.08139   2.20324  -1.27204  -0.07171
  22        3PX        -0.00929   0.01127   0.10191  -0.10705   0.09949
  23        3PY        -0.00536   0.00651   0.10705   0.02171  -0.12455
  24        3PZ         0.00376  -0.02742   0.07906  -0.04564  -0.08874
  25 4   H  1S         -0.07978   0.05487   0.62670   0.36183   0.03169
  26        2S         -1.87168  -3.08139  -2.20324  -1.27204  -0.07171
  27        3PX         0.00929  -0.01127   0.10191   0.10705  -0.09949
  28        3PY        -0.00536   0.00651  -0.10705   0.02171  -0.12455
  29        3PZ         0.00376  -0.02742  -0.07906  -0.04564  -0.08874
                          16        17        18        19        20
                        (E)--V    (A1)--V   (A1)--V   (A2)--V   (E)--V
     Eigenvalues --     0.86636   0.88000   1.15835   1.55822   1.60541
   1 1   B  1S          0.00000  -0.11296  -0.13704   0.00000  -0.00000
   2        2S          0.00000  -0.19085  -0.38674   0.00000   0.00000
   3        3S          0.00000   5.76857   1.06489   0.00000   0.00000
   4        4PX        -0.09421   0.00000   0.00000   0.00000   0.00000
   5        4PY         0.00000  -0.00000  -0.00000   0.00000   0.41267
   6        4PZ         0.00000  -0.20789  -0.38543   0.00000  -0.00000
   7        5PX        -0.07229   0.00000   0.00000  -0.00000   0.00000
   8        5PY         0.00000  -0.00000   0.00000   0.00000  -0.04653
   9        5PZ         0.00000  -1.49593  -0.17032   0.00000  -0.00000
  10        6D 0        0.00000  -0.55318   0.69262   0.00000  -0.00000
  11        6D+1        0.61033   0.00000   0.00000   0.00000   0.00000
  12        6D-1        0.00000  -0.00000  -0.00000   0.00000   0.52069
  13        6D+2        0.00000   0.00000  -0.00000   0.00000   0.67930
  14        6D-2       -0.43333   0.00000   0.00000   0.00000   0.00000
  15 2   H  1S          0.00000   0.62556   0.67443   0.00000   0.93753
  16        2S          0.00000  -2.67561  -0.67354   0.00000  -0.60859
  17        3PX        -0.18198   0.00000   0.00000   0.61216   0.00000
  18        3PY         0.00000   0.16692   0.14601   0.00000   0.46771
  19        3PZ         0.00000   0.03802  -0.17483   0.00000   0.07754
  20 3   H  1S          0.05489   0.62556   0.67443  -0.00000  -0.46877
  21        2S         -0.12420  -2.67561  -0.67354   0.00000   0.30429
  22        3PX        -0.00967  -0.14456  -0.12645  -0.30608   0.13208
  23        3PY         0.09949  -0.08346  -0.07301   0.53015   0.23894
  24        3PZ        -0.15369   0.03802  -0.17483   0.00000  -0.03877
  25 4   H  1S         -0.05489   0.62556   0.67443   0.00000  -0.46877
  26        2S          0.12420  -2.67561  -0.67354  -0.00000   0.30429
  27        3PX        -0.00967   0.14456   0.12645  -0.30608  -0.13208
  28        3PY        -0.09949  -0.08346  -0.07301  -0.53015   0.23894
  29        3PZ         0.15369   0.03802  -0.17483  -0.00000  -0.03877
                          21        22        23        24        25
                        (E)--V    (E)--V    (E)--V    (A1)--V   (E)--V
     Eigenvalues --     1.60541   1.68163   1.68163   2.07898   2.22214
   1 1   B  1S          0.00000  -0.00000   0.00000  -0.02779   0.00000
   2        2S          0.00000   0.00000   0.00000  -0.46737   0.00000
   3        3S          0.00000  -0.00000   0.00000   0.58250   0.00000
   4        4PX        -0.41267   0.00000  -0.08158   0.00000   0.00000
   5        4PY         0.00000   0.08158   0.00000  -0.00000  -0.02466
   6        4PZ         0.00000   0.00000   0.00000   0.40813   0.00000
   7        5PX         0.04653   0.00000   0.11861   0.00000   0.00000
   8        5PY         0.00000  -0.11861   0.00000   0.00000   0.15981
   9        5PZ         0.00000   0.00000   0.00000  -0.28347  -0.00000
  10        6D 0        0.00000   0.00000   0.00000   0.96500  -0.00000
  11        6D+1       -0.52069   0.00000   0.62954   0.00000   0.00000
  12        6D-1        0.00000  -0.62954   0.00000  -0.00000  -0.58846
  13        6D+2        0.00000  -0.36290   0.00000   0.00000   1.17063
  14        6D-2       -0.67930   0.00000   0.36290   0.00000   0.00000
  15 2   H  1S          0.00000  -0.41325   0.00000   0.20689   0.28745
  16        2S          0.00000   0.25268   0.00000  -0.21814  -0.08651
  17        3PX        -0.16268   0.00000  -0.40474   0.00000   0.00000
  18        3PY         0.00000   0.26897   0.00000   0.17768   0.03457
  19        3PZ         0.00000   0.71790   0.00000   0.75475   0.57992
  20 3   H  1S          0.81193   0.20662  -0.35788   0.20689  -0.14373
  21        2S         -0.52705  -0.12634   0.21883  -0.21814   0.04325
  22        3PX        -0.39145  -0.05879  -0.30291  -0.15387   0.45711
  23        3PY        -0.13208   0.37080   0.05879  -0.08884  -0.75716
  24        3PZ         0.06715  -0.35895   0.62172   0.75475  -0.28996
  25 4   H  1S         -0.81193   0.20662   0.35788   0.20689  -0.14373
  26        2S          0.52705  -0.12634  -0.21883  -0.21814   0.04325
  27        3PX        -0.39145   0.05879  -0.30291   0.15387  -0.45711
  28        3PY         0.13208   0.37080  -0.05879  -0.08884  -0.75716
  29        3PZ        -0.06715  -0.35895  -0.62172   0.75475  -0.28996
                          26        27        28        29
                        (E)--V    (A1)--V   (E)--V    (E)--V
     Eigenvalues --     2.22214   2.70401   2.94708   2.94708
   1 1   B  1S          0.00000   0.18887   0.00000   0.00000
   2        2S          0.00000   3.49355   0.00000   0.00000
   3        3S          0.00000   1.26569   0.00000   0.00000
   4        4PX        -0.02466   0.00000   2.43135   0.00000
   5        4PY         0.00000  -0.00000   0.00000   2.43135
   6        4PZ         0.00000   1.34250   0.00000   0.00000
   7        5PX         0.15981   0.00000  -0.23361   0.00000
   8        5PY         0.00000  -0.00000   0.00000  -0.23361
   9        5PZ         0.00000  -0.44612   0.00000  -0.00000
  10        6D 0        0.00000  -0.40618   0.00000  -0.00000
  11        6D+1       -0.58846   0.00000   1.10697   0.00000
  12        6D-1        0.00000  -0.00000   0.00000   1.10697
  13        6D+2        0.00000  -0.00000   0.00000   1.04281
  14        6D-2        1.17063   0.00000   1.04281   0.00000
  15 2   H  1S          0.00000  -1.14230   0.00000   2.09809
  16        2S          0.00000  -0.89772   0.00000   0.44122
  17        3PX        -1.02107   0.00000   0.20417   0.00000
  18        3PY         0.00000   0.96987   0.00000  -1.35107
  19        3PZ         0.00000  -0.25946   0.00000   0.54940
  20 3   H  1S         -0.24894  -1.14230  -1.81700  -1.04904
  21        2S          0.07492  -0.89772  -0.38210  -0.22061
  22        3PX        -0.22934  -0.83993  -0.96226  -0.67344
  23        3PY         0.45711  -0.48493  -0.67344  -0.18464
  24        3PZ        -0.50223  -0.25946  -0.47579  -0.27470
  25 4   H  1S          0.24894  -1.14230   1.81700  -1.04904
  26        2S         -0.07492  -0.89772   0.38210  -0.22061
  27        3PX        -0.22934   0.83993  -0.96226   0.67344
  28        3PY        -0.45711  -0.48493   0.67344  -0.18464
  29        3PZ         0.50223  -0.25946   0.47579  -0.27470
          Condensed to atoms (all electrons):
               1          2          3          4
     1  B    3.869787   0.433946   0.433946   0.433946
     2  H    0.433946   0.582592  -0.036873  -0.036873
     3  H    0.433946  -0.036873   0.582592  -0.036873
     4  H    0.433946  -0.036873  -0.036873   0.582592
 Mulliken charges:
               1
     1  B   -0.171625
     2  H    0.057208
     3  H    0.057208
     4  H    0.057208
 Sum of Mulliken charges =   0.00000
 Mulliken charges with hydrogens summed into heavy atoms:
               1
     1  B    0.000000
 Electronic spatial extent (au):  <R**2>=             28.0635
 Charge=             -0.0000 electrons
 Dipole moment (field-independent basis, Debye):
    X=             -0.0000    Y=             -0.0000    Z=              0.9805  Tot=              0.9805
 Quadrupole moment (field-independent basis, Debye-Ang):
   XX=             -8.8126   YY=             -8.8126   ZZ=             -6.0427
   XY=              0.0000   XZ=              0.0000   YZ=              0.0000
 Traceless Quadrupole moment (field-independent basis, Debye-Ang):
   XX=             -0.9233   YY=             -0.9233   ZZ=              1.8466
   XY=              0.0000   XZ=              0.0000   YZ=              0.0000
 Octapole moment (field-independent basis, Debye-Ang**2):
  XXX=              0.0000  YYY=              0.0459  ZZZ=              0.9611  XYY=              0.0000
  XXY=             -0.0459  XXZ=             -0.2485  XZZ=              0.0000  YZZ=              0.0000
  YYZ=             -0.2485  XYZ=              0.0000
 Hexadecapole moment (field-independent basis, Debye-Ang**3):
 XXXX=            -17.8692 YYYY=            -17.8692 ZZZZ=             -7.0886 XXXY=              0.0000
 XXXZ=              0.0000 YYYX=              0.0000 YYYZ=             -0.2354 ZZZX=             -0.0000
 ZZZY=             -0.0000 XXYY=             -5.9564 XXZZ=             -4.1406 YYZZ=             -4.1406
 XXYZ=              0.2354 YYXZ=             -0.0000 ZZXY=              0.0000
 N-N= 8.775582741843D+00 E-N=-7.821003169816D+01  KE= 2.678197505171D+01
 Symmetry A'   KE= 2.516329660718D+01
 Symmetry A"   KE= 1.618678444529D+00
 Orbital energies and kinetic energies (alpha):
                                 1                 2
   1         (A1)--O          -6.498953         10.710626
   2         (A1)--O          -0.494603          1.061683
   3         (E)--O           -0.302109          0.809339
   4         (E)--O           -0.302109          0.809339
   5         (A1)--V          -0.139230          0.710258
   6         (A1)--V           0.134630          0.668071
   7         (E)--V            0.142495          0.439993
   8         (E)--V            0.142495          0.439993
   9         (E)--V            0.237378          0.908562
  10         (E)--V            0.237378          0.908562
  11         (A1)--V           0.274336          1.168258
  12         (A1)--V           0.278185          0.938169
  13         (E)--V            0.666383          1.676696
  14         (E)--V            0.666383          1.676696
  15         (E)--V            0.866355          1.675773
  16         (E)--V            0.866355          1.675773
  17         (A1)--V           0.879998          1.926867
  18         (A1)--V           1.158347          2.323089
  19         (A2)--V           1.558219          2.295531
  20         (E)--V            1.605406          2.632089
  21         (E)--V            1.605406          2.632089
  22         (E)--V            1.681632          2.431142
  23         (E)--V            1.681632          2.431142
  24         (A1)--V           2.078983          2.868367
  25         (E)--V            2.222137          2.963530
  26         (E)--V            2.222137          2.963530
  27         (A1)--V           2.704010          4.303847
  28         (E)--V            2.947083          5.000000
  29         (E)--V            2.947083          5.000000
 Total kinetic energy from orbitals= 2.678197505171D+01
 No NMR shielding tensors so no spin-rotation constants.
 Leave Link  601 at Wed Jan 24 15:18:10 2018, MaxMem=   536870912 cpu:         0.2
 (Enter /home/chemsoft/gaussian/g09e01/g09/l701.exe)
 Compute integral first derivatives.
 ... and contract with generalized density number  0.
   6 Symmetry operations used in ECPInt.
 ECPInt:  NShTT=     120 NPrTT=     400 LenC2=     121 LenP2D=     397.
 LDataN:  DoStor=T MaxTD1= 5 Len=  102
 Leave Link  701 at Wed Jan 24 15:18:10 2018, MaxMem=   536870912 cpu:         0.2
 (Enter /home/chemsoft/gaussian/g09e01/g09/l702.exe)
 L702 exits ... SP integral derivatives will be done elsewhere.
 Leave Link  702 at Wed Jan 24 15:18:10 2018, MaxMem=   536870912 cpu:         0.0
 (Enter /home/chemsoft/gaussian/g09e01/g09/l703.exe)
 Compute integral first derivatives, UseDBF=T ICtDFT=           0.
 Integral derivatives from FoFJK, PRISM(SPDF).
 Calling FoFJK, ICntrl=      2527 FMM=F ISym2X=1 I1Cent= 4 IOpClX= 0 NMat=1 NMatS=1 NMatT=0.
 FoFJK:  IHMeth= 1 ICntrl=    2527 DoSepK=F KAlg= 0 I1Cent=   4 FoldK=F
 IRaf=         0 NMat=   1 IRICut=       1 DoRegI=T DoRafI=F ISym2E= 1.
 FoFCou: FMM=F IPFlag=           0 FMFlag=      100000 FMFlg1=         800
         NFxFlg=           0 DoJE=F BraDBF=F KetDBF=T FulRan=T
         wScrn=  0.000000 ICntrl=    2527 IOpCl=  0 I1Cent=           4 NGrid=           0
         NMat0=    1 NMatS0=      1 NMatT0=    0 NMatD0=    1 NMtDS0=    0 NMtDT0=    0
 Petite list used in FoFCou.
 Leave Link  703 at Wed Jan 24 15:18:11 2018, MaxMem=   536870912 cpu:         0.8
 (Enter /home/chemsoft/gaussian/g09e01/g09/l716.exe)
 Dipole        =-2.22044605D-16-2.22044605D-16 3.85750544D-01
 ***** Axes restored to original set *****
 -------------------------------------------------------------------
 Center     Atomic                   Forces (Hartrees/Bohr)
 Number     Number              X              Y              Z
 -------------------------------------------------------------------
      1        5           0.000000000    0.000000000   -0.049904850
      2        1          -0.150417616   -0.000000000    0.016634950
      3        1           0.075208808    0.130265476    0.016634950
      4        1           0.075208808   -0.130265476    0.016634950
 -------------------------------------------------------------------
 Cartesian Forces:  Max     0.150417616 RMS     0.077026530
 Leave Link  716 at Wed Jan 24 15:18:11 2018, MaxMem=   536870912 cpu:         0.1
 (Enter /home/chemsoft/gaussian/g09e01/g09/l103.exe)

 GradGradGradGradGradGradGradGradGradGradGradGradGradGradGradGradGradGrad
 Berny optimization.
 FormGI is forming the generalized inverse of G from B-inverse, IUseBI=4.
 Internal  Forces:  Max     0.144975104 RMS     0.101115225
 Search for a local minimum.
 Step number   1 out of a maximum of  100
 All quantities printed in internal units (Hartrees-Bohrs-Radians)
 RMS Force = .10112D+00 SwitMx=.10000D-02 MixMth= 1
 Mixed Optimization -- RFO/linear search
 Second derivative matrix not updated -- first step.
 The second derivative matrix:
                          R1        R2        R3        A1        A2
           R1           0.44664
           R2           0.00000   0.44664
           R3           0.00000   0.00000   0.44664
           A1           0.00000   0.00000   0.00000   0.16000
           A2           0.00000   0.00000   0.00000   0.00000   0.16000
           A3           0.00000   0.00000   0.00000   0.00000   0.00000
           D1           0.00000   0.00000   0.00000   0.00000   0.00000
                          A3        D1
           A3           0.16000
           D1           0.00000   0.01717
 ITU=  0
     Eigenvalues ---    0.07208   0.16000   0.16000   0.44664   0.44664
     Eigenvalues ---    0.44664
 RFO step:  Lambda=-1.42180264D-01 EMin= 7.20824733D-02
 Linear search not attempted -- first point.
 Maximum step size (   0.100) exceeded in Quadratic search.
    -- Step size scaled by   0.195
 Iteration  1 RMS(Cart)=  0.04388026 RMS(Int)=  0.00106649
 Iteration  2 RMS(Cart)=  0.00053028 RMS(Int)=  0.00080087
 Iteration  3 RMS(Cart)=  0.00000127 RMS(Int)=  0.00080087
 Iteration  4 RMS(Cart)=  0.00000000 RMS(Int)=  0.00080087
 ITry= 1 IFail=0 DXMaxC= 6.17D-02 DCOld= 1.00D+10 DXMaxT= 1.00D-01 DXLimC= 3.00D+00 Rises=F
 ClnCor:  largest displacement from symmetrization is 1.06D-02 for atom     4.
 Variable       Old X    -DE/DX   Delta X   Delta X   Delta X     New X
                                 (Linear)    (Quad)   (Total)
    R1        1.92367   0.14498   0.00000   0.04804   0.04514   1.96881
    R2        1.92367   0.14498   0.00000   0.04804   0.04514   1.96881
    R3        1.92367   0.14498   0.00000   0.04804   0.04514   1.96881
    A1        1.84561   0.01187   0.00000   0.01803   0.02861   1.87422
    A2        1.84561   0.05120   0.00000   0.03692   0.02861   1.87422
    A3        1.84561   0.05120   0.00000   0.03692   0.02861   1.87422
    D1       -1.95243  -0.05598   0.00000  -0.05097  -0.05855  -2.01098
         Item               Value     Threshold  Converged?
 Maximum Force            0.144975     0.000002     NO 
 RMS     Force            0.101115     0.000001     NO 
 Maximum Displacement     0.061000     0.000006     NO 
 RMS     Displacement     0.041122     0.000004     NO 
 Predicted change in Energy=-2.458796D-02
 Lowest energy point so far.  Saving SCF results.
 GradGradGradGradGradGradGradGradGradGradGradGradGradGradGradGradGradGrad

 Leave Link  103 at Wed Jan 24 15:18:11 2018, MaxMem=   536870912 cpu:         0.0
 (Enter /home/chemsoft/gaussian/g09e01/g09/l202.exe)
                          Input orientation:                          
 ---------------------------------------------------------------------
 Center     Atomic      Atomic             Coordinates (Angstroms)
 Number     Number       Type             X           Y           Z
 ---------------------------------------------------------------------
      1          5           0       -0.000000    0.000000   -0.058347
      2          1           0       -0.969459   -0.000000    0.323232
      3          1           0        0.484730    0.839576    0.323232
      4          1           0        0.484730   -0.839576    0.323232
 ---------------------------------------------------------------------
                    Distance matrix (angstroms):
                    1          2          3          4
     1  B    0.000000
     2  H    1.041851   0.000000
     3  H    1.041851   1.679153   0.000000
     4  H    1.041851   1.679153   1.679153   0.000000
 Stoichiometry    BH3
 Framework group  C3V[C3(B),3SGV(H)]
 Deg. of freedom     2
 Full point group                 C3V     NOp   6
 RotChk:  IX=0 Diff= 7.85D-17
 Largest Abelian subgroup         CS      NOp   2
 Largest concise Abelian subgroup CS      NOp   2
                         Standard orientation:                         
 ---------------------------------------------------------------------
 Center     Atomic      Atomic             Coordinates (Angstroms)
 Number     Number       Type             X           Y           Z
 ---------------------------------------------------------------------
      1          5           0        0.000000    0.000000    0.143092
      2          1           0        0.000000    0.969459   -0.238487
      3          1           0       -0.839576   -0.484730   -0.238487
      4          1           0        0.839576   -0.484730   -0.238487
 ---------------------------------------------------------------------
 Rotational constants (GHZ):    286.1418458    286.1418458    177.8490679
 Leave Link  202 at Wed Jan 24 15:18:11 2018, MaxMem=   536870912 cpu:         0.0
 (Enter /home/chemsoft/gaussian/g09e01/g09/l301.exe)
 Standard basis: def2SVP (5D, 7F)
 Ernie: Thresh=  0.10000D-02 Tol=  0.10000D-05 Strict=F.
 There are    20 symmetry adapted cartesian basis functions of A'  symmetry.
 There are    10 symmetry adapted cartesian basis functions of A"  symmetry.
 There are    19 symmetry adapted basis functions of A'  symmetry.
 There are    10 symmetry adapted basis functions of A"  symmetry.
    29 basis functions,    46 primitive gaussians,    30 cartesian basis functions
     4 alpha electrons        4 beta electrons
       nuclear repulsion energy         8.5642390626 Hartrees.
 IExCor= 1009 DFT=T Ex=PBE Corr=PBE ExCW=0 ScaHFX=  0.000000
 ScaDFX=  1.000000  1.000000  1.000000  1.000000 ScalE2=  1.000000  1.000000
 IRadAn=      5 IRanWt=     -1 IRanGd=            0 ICorTp=0 IEmpDi=  4
 NAtoms=    4 NActive=    4 NUniq=    2 SFac= 4.00D+00 NAtFMM=   60 NAOKFM=F Big=F
 Integral buffers will be    131072 words long.
 Raffenetti 2 integral format.
 Two-electron integral symmetry is turned on.
 Standard density basis: W06 (5D, 7F)
    82 Density fitting functions
 There are    82 symmetry adapted density basis functions of A   symmetry.
 Leave Link  301 at Wed Jan 24 15:18:11 2018, MaxMem=   536870912 cpu:         0.2
 (Enter /home/chemsoft/gaussian/g09e01/g09/l302.exe)
 NPDir=0 NMtPBC=     1 NCelOv=     1 NCel=       1 NClECP=     1 NCelD=      1
         NCelK=      1 NCelE2=     1 NClLst=     1 CellRange=     0.0.
 One-electron integrals computed using PRISM.
 One-electron integral symmetry used in STVInt
   6 Symmetry operations used in ECPInt.
 ECPInt:  NShTT=     120 NPrTT=     400 LenC2=     121 LenP2D=     394.
 LDataN:  DoStor=T MaxTD1= 4 Len=   56
 NBasis=    29 RedAO= T EigKep=  6.60D-03  NBF=    19    10
 NBsUse=    29 1.00D-06 EigRej= -1.00D+00 NBFU=    19    10
 NBasis=       29 NBas6D=       30 NTT=         435   NTT6D=      465
 NDBShl=       30 NDBF=         82 NDBF6D=       97  NNucDB=        0
 IDenFi=        2 ISolve=        0 FullAP=F BlkAPC=T NucTyp=        0
 TolInv= 1.00D-06 TolIt=  1.00D-10 IR12=0.
 FoFCou: FMM=F IPFlag=           0 FMFlag=           0 FMFlg1=           0
         NFxFlg=           0 DoJE=F BraDBF=T KetDBF=T FulRan=T
         wScrn=  0.000000 ICntrl=     600 IOpCl=  3 I1Cent=           6 NGrid=           0
         NMat0=    1 NMatS0=     97 NMatT0=    0 NMatD0=    1 NMtDS0=    0 NMtDT0=    0
 Petite list used in FoFCou.
 DBF EigKep=  1.99D-04 EigRej= -1.00D+00
 NDBF=     82  NBFD=    82
 NRank=    82 NBFDU=    82
 S*AI*S=  5.45617532404    
 Precomputing XC quadrature grid using
 IXCGrd= 4 IRadAn=           5 IRanWt=          -1 IRanGd=           0 AccXCQ= 0.00D+00.
 Generated NRdTot=       0 NPtTot=           0 NUsed=           0 NTot=          32
 NSgBfM=    30    30    30    30    30 MxSgAt=     4 MxSgA2=     4.
 Leave Link  302 at Wed Jan 24 15:18:12 2018, MaxMem=   536870912 cpu:         0.4
 (Enter /home/chemsoft/gaussian/g09e01/g09/l303.exe)
 DipDrv:  MaxL=1.
 Leave Link  303 at Wed Jan 24 15:18:12 2018, MaxMem=   536870912 cpu:         0.1
 (Enter /home/chemsoft/gaussian/g09e01/g09/l401.exe)
 Initial guess from the checkpoint file:  "borane.df-pbesvp.chk"
 B after Tr=    -0.000000    0.000000    0.000000
         Rot=    1.000000   -0.000000    0.000000    0.000000 Ang=   0.00 deg.
 Guess basis will be translated and rotated to current coordinates.
 Recovered     1 saved fitting vectors from chk file.
 JPrj=2 DoOrth=T DoCkMO=T.
 Initial guess orbital symmetries:
       Occupied  (A1) (A1) (E) (E)
       Virtual   (?A) (?A) (?A) (?A) (?A) (?A) (?A) (?A) (?A) (?A)
                 (?A) (?A) (?A) (?A) (?A) (?A) (?A) (?A) (?A) (?A)
                 (?A) (?A) (?A) (?A) (?A)
 The electronic state of the initial guess is 1-A1.
 Generating alternative initial guess.
 ExpMin= 8.36D-02 ExpMax= 8.39D+02 ExpMxC= 1.26D+02 IAcc=2 IRadAn=         4 AccDes= 0.00D+00
 Harris functional with IExCor= 1009 and IRadAn=       4 diagonalized for initial guess.
 HarFok:  IExCor= 1009 AccDes= 0.00D+00 IRadAn=         4 IDoV= 1 UseB2=F ITyADJ=14
 ICtDFT=  3500011 ScaDFX=  1.000000  1.000000  1.000000  1.000000
 FoFCou: FMM=F IPFlag=           0 FMFlag=      100000 FMFlg1=           0
         NFxFlg=           0 DoJE=T BraDBF=F KetDBF=T FulRan=T
         wScrn=  0.000000 ICntrl=     500 IOpCl=  0 I1Cent=   200000004 NGrid=           0
         NMat0=    1 NMatS0=      1 NMatT0=    0 NMatD0=    1 NMtDS0=    0 NMtDT0=    0
 Petite list used in FoFCou.
 Harris En= -26.5140201668521    
 Leave Link  401 at Wed Jan 24 15:18:12 2018, MaxMem=   536870912 cpu:         0.4
 (Enter /home/chemsoft/gaussian/g09e01/g09/l502.exe)
 Closed shell SCF:
 Density fitting will be used, IDenFit= 2 NucTyp=  0.
 Using DIIS extrapolation, IDIIS=  1040.
 Integral symmetry usage will be decided dynamically.
 IVT=      257426 IEndB=      257426 NGot=   536870912 MDV=   536865417
 LenX=   536865417 LenY=   536864076
 Requested convergence on RMS density matrix=1.00D-08 within 500 cycles.
 Requested convergence on MAX density matrix=1.00D-06.
 Requested convergence on             energy=1.00D-06.
 No special actions if energy rises.
 Fock matrices will be formed incrementally for  20 cycles.

 Cycle   1  Pass 0  IDiag  1:
 FoFCou: FMM=F IPFlag=           0 FMFlag=      100000 FMFlg1=           0
         NFxFlg=           0 DoJE=T BraDBF=T KetDBF=F FulRan=T
         wScrn=  0.000000 ICntrl=     500 IOpCl=  0 I1Cent=           5 NGrid=           0
         NMat0=    1 NMatS0=      1 NMatT0=    0 NMatD0=    1 NMtDS0=    0 NMtDT0=    0
 Petite list used in FoFCou.
 FoFJK:  IHMeth= 1 ICntrl=     500 DoSepK=F KAlg= 0 I1Cent=   4 FoldK=F
 IRaf= 990000000 NMat=   1 IRICut=       1 DoRegI=T DoRafI=F ISym2E= 1.
 E= -26.4263618196478    
 DIIS: error= 5.17D-03 at cycle   1 NSaved=   1.
 NSaved= 1 IEnMin= 1 EnMin= -26.4263618196478     IErMin= 1 ErrMin= 5.17D-03
 ErrMax= 5.17D-03  0.00D+00 EMaxC= 1.00D-01 BMatC= 3.46D-04 BMatP= 3.46D-04
 IDIUse=3 WtCom= 9.48D-01 WtEn= 5.17D-02
 Coeff-Com:  0.100D+01
 Coeff-En:   0.100D+01
 Coeff:      0.100D+01
 Gap=     0.662 Goal=   None    Shift=    0.000
 GapD=    0.662 DampG=2.000 DampE=1.000 DampFc=2.0000 IDamp=-1.
 RMSDP=1.18D-03 MaxDP=9.99D-03              OVMax= 1.76D-02

 Cycle   2  Pass 0  IDiag  1:
 RMSU=  1.17D-03    CP:  9.96D-01
 E= -26.4266840559351     Delta-E=       -0.000322236287 Rises=F Damp=F
 DIIS: error= 1.40D-03 at cycle   2 NSaved=   2.
 NSaved= 2 IEnMin= 2 EnMin= -26.4266840559351     IErMin= 2 ErrMin= 1.40D-03
 ErrMax= 1.40D-03  0.00D+00 EMaxC= 1.00D-01 BMatC= 4.57D-05 BMatP= 3.46D-04
 IDIUse=3 WtCom= 9.86D-01 WtEn= 1.40D-02
 Coeff-Com:  0.201D+00 0.799D+00
 Coeff-En:   0.000D+00 0.100D+01
 Coeff:      0.198D+00 0.802D+00
 Gap=     0.167 Goal=   None    Shift=    0.000
 RMSDP=3.33D-04 MaxDP=1.88D-03 DE=-3.22D-04 OVMax= 6.80D-03

 Cycle   3  Pass 0  IDiag  1:
 RMSU=  2.93D-04    CP:  9.98D-01  8.86D-01
 E= -26.4267472778714     Delta-E=       -0.000063221936 Rises=F Damp=F
 DIIS: error= 6.33D-04 at cycle   3 NSaved=   3.
 NSaved= 3 IEnMin= 3 EnMin= -26.4267472778714     IErMin= 3 ErrMin= 6.33D-04
 ErrMax= 6.33D-04  0.00D+00 EMaxC= 1.00D-01 BMatC= 7.86D-06 BMatP= 4.57D-05
 IDIUse=3 WtCom= 9.94D-01 WtEn= 6.33D-03
 Coeff-Com:  0.518D-02 0.295D+00 0.700D+00
 Coeff-En:   0.000D+00 0.111D-01 0.989D+00
 Coeff:      0.515D-02 0.293D+00 0.702D+00
 Gap=     0.167 Goal=   None    Shift=    0.000
 RMSDP=9.71D-05 MaxDP=6.00D-04 DE=-6.32D-05 OVMax= 2.11D-03

 Cycle   4  Pass 0  IDiag  1:
 RMSU=  2.10D-05    CP:  9.97D-01  9.27D-01  7.34D-01
 E= -26.4267599394925     Delta-E=       -0.000012661621 Rises=F Damp=F
 DIIS: error= 1.67D-05 at cycle   4 NSaved=   4.
 NSaved= 4 IEnMin= 4 EnMin= -26.4267599394925     IErMin= 4 ErrMin= 1.67D-05
 ErrMax= 1.67D-05  0.00D+00 EMaxC= 1.00D-01 BMatC= 5.97D-09 BMatP= 7.86D-06
 IDIUse=1 WtCom= 1.00D+00 WtEn= 0.00D+00
 Coeff-Com: -0.451D-03 0.487D-01 0.123D+00 0.829D+00
 Coeff:     -0.451D-03 0.487D-01 0.123D+00 0.829D+00
 Gap=     0.167 Goal=   None    Shift=    0.000
 RMSDP=4.93D-06 MaxDP=3.17D-05 DE=-1.27D-05 OVMax= 6.37D-05

 Initial convergence to 1.0D-05 achieved.  Increase integral accuracy.
 Cycle   5  Pass 1  IDiag  1:
 E= -26.4267601578689     Delta-E=       -0.000000218376 Rises=F Damp=F
 DIIS: error= 6.78D-06 at cycle   1 NSaved=   1.
 NSaved= 1 IEnMin= 1 EnMin= -26.4267601578689     IErMin= 1 ErrMin= 6.78D-06
 ErrMax= 6.78D-06  0.00D+00 EMaxC= 1.00D-01 BMatC= 1.10D-09 BMatP= 1.10D-09
 IDIUse=1 WtCom= 1.00D+00 WtEn= 0.00D+00
 Coeff-Com:  0.100D+01
 Coeff:      0.100D+01
 Gap=     0.167 Goal=   None    Shift=    0.000
 RMSDP=4.93D-06 MaxDP=3.17D-05 DE=-2.18D-07 OVMax= 3.51D-05

 Cycle   6  Pass 1  IDiag  1:
 RMSU=  2.67D-06    CP:  1.00D+00
 E= -26.4267601583488     Delta-E=       -0.000000000480 Rises=F Damp=F
 DIIS: error= 5.77D-06 at cycle   2 NSaved=   2.
 NSaved= 2 IEnMin= 2 EnMin= -26.4267601583488     IErMin= 2 ErrMin= 5.77D-06
 ErrMax= 5.77D-06  0.00D+00 EMaxC= 1.00D-01 BMatC= 8.15D-10 BMatP= 1.10D-09
 IDIUse=1 WtCom= 1.00D+00 WtEn= 0.00D+00
 Coeff-Com:  0.462D+00 0.538D+00
 Coeff:      0.462D+00 0.538D+00
 Gap=     0.167 Goal=   None    Shift=    0.000
 RMSDP=1.26D-06 MaxDP=1.29D-05 DE=-4.80D-10 OVMax= 1.50D-05

 Cycle   7  Pass 1  IDiag  1:
 RMSU=  1.14D-07    CP:  1.00D+00  5.34D-01
 E= -26.4267601595800     Delta-E=       -0.000000001231 Rises=F Damp=F
 DIIS: error= 6.40D-08 at cycle   3 NSaved=   3.
 NSaved= 3 IEnMin= 3 EnMin= -26.4267601595800     IErMin= 3 ErrMin= 6.40D-08
 ErrMax= 6.40D-08  0.00D+00 EMaxC= 1.00D-01 BMatC= 7.19D-14 BMatP= 8.15D-10
 IDIUse=1 WtCom= 1.00D+00 WtEn= 0.00D+00
 Coeff-Com:  0.142D-01 0.155D-01 0.970D+00
 Coeff:      0.142D-01 0.155D-01 0.970D+00
 Gap=     0.167 Goal=   None    Shift=    0.000
 RMSDP=1.77D-08 MaxDP=1.18D-07 DE=-1.23D-09 OVMax= 3.74D-07

 Cycle   8  Pass 1  IDiag  1:
 RMSU=  1.68D-08    CP:  1.00D+00  5.34D-01  9.71D-01
 E= -26.4267601595801     Delta-E=       -0.000000000000 Rises=F Damp=F
 DIIS: error= 4.42D-08 at cycle   4 NSaved=   4.
 NSaved= 4 IEnMin= 4 EnMin= -26.4267601595801     IErMin= 4 ErrMin= 4.42D-08
 ErrMax= 4.42D-08  0.00D+00 EMaxC= 1.00D-01 BMatC= 3.36D-14 BMatP= 7.19D-14
 IDIUse=1 WtCom= 1.00D+00 WtEn= 0.00D+00
 Coeff-Com: -0.482D-02-0.649D-02 0.390D+00 0.622D+00
 Coeff:     -0.482D-02-0.649D-02 0.390D+00 0.622D+00
 Gap=     0.167 Goal=   None    Shift=    0.000
 RMSDP=6.31D-09 MaxDP=3.86D-08 DE=-7.11D-14 OVMax= 1.39D-07

 SCF Done:  E(RPBE-PBE) =  -26.4267601596     A.U. after    8 cycles
            NFock=  8  Conv=0.63D-08     -V/T= 1.9904
 KE= 2.668294382912D+01 PE=-7.775158182536D+01 EE= 1.607763877402D+01
 Leave Link  502 at Wed Jan 24 15:18:17 2018, MaxMem=   536870912 cpu:         4.5
 (Enter /home/chemsoft/gaussian/g09e01/g09/l508.exe)
 QCSCF skips out because SCF is already converged.
 Leave Link  508 at Wed Jan 24 15:18:17 2018, MaxMem=   536870912 cpu:         0.0
 (Enter /home/chemsoft/gaussian/g09e01/g09/l701.exe)
 Compute integral first derivatives.
 ... and contract with generalized density number  0.
   6 Symmetry operations used in ECPInt.
 ECPInt:  NShTT=     120 NPrTT=     400 LenC2=     121 LenP2D=     394.
 LDataN:  DoStor=T MaxTD1= 5 Len=  102
 Leave Link  701 at Wed Jan 24 15:18:17 2018, MaxMem=   536870912 cpu:         0.2
 (Enter /home/chemsoft/gaussian/g09e01/g09/l702.exe)
 L702 exits ... SP integral derivatives will be done elsewhere.
 Leave Link  702 at Wed Jan 24 15:18:17 2018, MaxMem=   536870912 cpu:         0.0
 (Enter /home/chemsoft/gaussian/g09e01/g09/l703.exe)
 Compute integral first derivatives, UseDBF=T ICtDFT=           0.
 Integral derivatives from FoFJK, PRISM(SPDF).
 Calling FoFJK, ICntrl=      2527 FMM=F ISym2X=1 I1Cent= 4 IOpClX= 0 NMat=1 NMatS=1 NMatT=0.
 FoFJK:  IHMeth= 1 ICntrl=    2527 DoSepK=F KAlg= 0 I1Cent=   4 FoldK=F
 IRaf=         0 NMat=   1 IRICut=       1 DoRegI=T DoRafI=F ISym2E= 1.
 FoFCou: FMM=F IPFlag=           0 FMFlag=      100000 FMFlg1=         800
         NFxFlg=           0 DoJE=F BraDBF=F KetDBF=T FulRan=T
         wScrn=  0.000000 ICntrl=    2527 IOpCl=  0 I1Cent=           4 NGrid=           0
         NMat0=    1 NMatS0=      1 NMatT0=    0 NMatD0=    1 NMtDS0=    0 NMtDT0=    0
 Petite list used in FoFCou.
 Leave Link  703 at Wed Jan 24 15:18:18 2018, MaxMem=   536870912 cpu:         0.8
 (Enter /home/chemsoft/gaussian/g09e01/g09/l716.exe)
 Dipole        = 0.00000000D+00-1.11022302D-16 3.61140594D-01
 ***** Axes restored to original set *****
 -------------------------------------------------------------------
 Center     Atomic                   Forces (Hartrees/Bohr)
 Number     Number              X              Y              Z
 -------------------------------------------------------------------
      1        5           0.000000000    0.000000000   -0.021769187
      2        1          -0.125870694   -0.000000000    0.007256396
      3        1           0.062935347    0.109007219    0.007256396
      4        1           0.062935347   -0.109007219    0.007256396
 -------------------------------------------------------------------
 Cartesian Forces:  Max     0.125870694 RMS     0.063352294
 Leave Link  716 at Wed Jan 24 15:18:18 2018, MaxMem=   536870912 cpu:         0.1
 (Enter /home/chemsoft/gaussian/g09e01/g09/l103.exe)

 GradGradGradGradGradGradGradGradGradGradGradGradGradGradGradGradGradGrad
 Berny optimization.
 Using GEDIIS/GDIIS optimizer.
 FormGI is forming the generalized inverse of G from B-inverse, IUseBI=4.
 Internal  Forces:  Max     0.119782385 RMS     0.084702889
 Search for a local minimum.
 Step number   2 out of a maximum of  100
 All quantities printed in internal units (Hartrees-Bohrs-Radians)
 RMS Force = .84703D-01 SwitMx=.10000D-02 MixMth= 1
 Mixed Optimization -- RFO/linear search
 Update second derivatives using D2CorX and points    1    2
 DE= -2.42D-02 DEPred=-2.46D-02 R= 9.84D-01
 TightC=F SS=  1.41D+00  RLast= 1.10D-01 DXNew= 1.6818D-01 3.2858D-01
 Trust test= 9.84D-01 RLast= 1.10D-01 DXMaxT set to 1.68D-01
 The second derivative matrix:
                          R1        R2        R3        A1        A2
           R1           0.48134
           R2           0.03470   0.48134
           R3           0.03470   0.03470   0.48134
           A1          -0.00916  -0.00916  -0.00916   0.15584
           A2           0.00939   0.00939   0.00939  -0.00189   0.16249
           A3           0.00939   0.00939   0.00939  -0.00189   0.00249
           D1          -0.00097  -0.00097  -0.00097   0.00055  -0.00029
                          A3        D1
           A3           0.16249
           D1          -0.00029   0.01718
 ITU=  1  0
 Use linear search instead of GDIIS.
 Linear search step of   0.185 exceeds DXMaxT=   0.168 but not scaled.
 Quartic linear search produced a step of  2.00000.
 Iteration  1 RMS(Cart)=  0.08215205 RMS(Int)=  0.00460926
 Iteration  2 RMS(Cart)=  0.00171993 RMS(Int)=  0.00390305
 Iteration  3 RMS(Cart)=  0.00001785 RMS(Int)=  0.00390300
 Iteration  4 RMS(Cart)=  0.00000016 RMS(Int)=  0.00390300
 ITry= 1 IFail=0 DXMaxC= 1.20D-01 DCOld= 1.00D+10 DXMaxT= 1.68D-01 DXLimC= 3.00D+00 Rises=F
 ClnCor:  largest displacement from symmetrization is 1.72D-03 for atom     4.
 Variable       Old X    -DE/DX   Delta X   Delta X   Delta X     New X
                                 (Linear)    (Quad)   (Total)
    R1        1.96881   0.11978   0.09028   0.00000   0.08979   2.05860
    R2        1.96881   0.11978   0.09028   0.00000   0.08979   2.05860
    R3        1.96881   0.11978   0.09028   0.00000   0.08979   2.05860
    A1        1.87422   0.00879   0.05722   0.00000   0.05227   1.92649
    A2        1.87422   0.04524   0.05722   0.00000   0.05227   1.92649
    A3        1.87422   0.04524   0.05722   0.00000   0.05227   1.92649
    D1       -2.01098  -0.05484  -0.11710   0.00000  -0.12352  -2.13450
         Item               Value     Threshold  Converged?
 Maximum Force            0.119782     0.000002     NO 
 RMS     Force            0.084703     0.000001     NO 
 Maximum Displacement     0.119678     0.000006     NO 
 RMS     Displacement     0.081298     0.000004     NO 
 Predicted change in Energy=-3.661575D-02
 Lowest energy point so far.  Saving SCF results.
 GradGradGradGradGradGradGradGradGradGradGradGradGradGradGradGradGradGrad

 Leave Link  103 at Wed Jan 24 15:18:18 2018, MaxMem=   536870912 cpu:         0.0
 (Enter /home/chemsoft/gaussian/g09e01/g09/l202.exe)
                          Input orientation:                          
 ---------------------------------------------------------------------
 Center     Atomic      Atomic             Coordinates (Angstroms)
 Number     Number       Type             X           Y           Z
 ---------------------------------------------------------------------
      1          5           0       -0.000000    0.000000   -0.031986
      2          1           0       -1.032790   -0.000000    0.314511
      3          1           0        0.516395    0.894423    0.314511
      4          1           0        0.516395   -0.894423    0.314511
 ---------------------------------------------------------------------
                    Distance matrix (angstroms):
                    1          2          3          4
     1  B    0.000000
     2  H    1.089365   0.000000
     3  H    1.089365   1.788845   0.000000
     4  H    1.089365   1.788845   1.788845   0.000000
 Stoichiometry    BH3
 Framework group  C3V[C3(B),3SGV(H)]
 Deg. of freedom     2
 Full point group                 C3V     NOp   6
 RotChk:  IX=0 Diff= 2.36D-16
 Largest Abelian subgroup         CS      NOp   2
 Largest concise Abelian subgroup CS      NOp   2
                         Standard orientation:                         
 ---------------------------------------------------------------------
 Center     Atomic      Atomic             Coordinates (Angstroms)
 Number     Number       Type             X           Y           Z
 ---------------------------------------------------------------------
      1          5           0        0.000000    0.000000    0.129936
      2          1           0        0.000000    1.032790   -0.216560
      3          1           0       -0.894423   -0.516395   -0.216560
      4          1           0        0.894423   -0.516395   -0.216560
 ---------------------------------------------------------------------
 Rotational constants (GHZ):    266.3687452    266.3687452    156.7062831
 Leave Link  202 at Wed Jan 24 15:18:18 2018, MaxMem=   536870912 cpu:         0.0
 (Enter /home/chemsoft/gaussian/g09e01/g09/l301.exe)
 Standard basis: def2SVP (5D, 7F)
 Ernie: Thresh=  0.10000D-02 Tol=  0.10000D-05 Strict=F.
 There are    20 symmetry adapted cartesian basis functions of A'  symmetry.
 There are    10 symmetry adapted cartesian basis functions of A"  symmetry.
 There are    19 symmetry adapted basis functions of A'  symmetry.
 There are    10 symmetry adapted basis functions of A"  symmetry.
    29 basis functions,    46 primitive gaussians,    30 cartesian basis functions
     4 alpha electrons        4 beta electrons
       nuclear repulsion energy         8.1739625833 Hartrees.
 IExCor= 1009 DFT=T Ex=PBE Corr=PBE ExCW=0 ScaHFX=  0.000000
 ScaDFX=  1.000000  1.000000  1.000000  1.000000 ScalE2=  1.000000  1.000000
 IRadAn=      5 IRanWt=     -1 IRanGd=            0 ICorTp=0 IEmpDi=  4
 NAtoms=    4 NActive=    4 NUniq=    2 SFac= 4.00D+00 NAtFMM=   60 NAOKFM=F Big=F
 Integral buffers will be    131072 words long.
 Raffenetti 2 integral format.
 Two-electron integral symmetry is turned on.
 Standard density basis: W06 (5D, 7F)
    82 Density fitting functions
[...]
 ---------------------------------------------------------------------
 Rotational constants (GHZ):    226.6875208    226.6875208    113.3437604
 Leave Link  202 at Wed Jan 24 15:19:06 2018, MaxMem=   536870912 cpu:         0.0
 (Enter /home/chemsoft/gaussian/g09e01/g09/l601.exe)
 Copying SCF densities to generalized density rwf, IOpCl= 0 IROHF=0.

 **********************************************************************

            Population analysis using the SCF density.

 **********************************************************************

 Orbital symmetries:
       Occupied  (?A) (?A) (?B) (?B)
       Virtual   (A1) (?B) (?B) (?A) (?A) (?B) (?B) (A1) (?B) (?B)
                 (?A) (?C) (?C) (?B) (?B) (?A) (?A) (A1) (?C) (?C)
                 (?B) (?B) (?A) (?B) (?B)
 Unable to determine electronic state:  an orbital has unidentified symmetry.
 Alpha  occ. eigenvalues --   -6.54546  -0.45393  -0.30670  -0.30670
 Alpha virt. eigenvalues --   -0.11032   0.11933   0.11933   0.12425   0.17668
 Alpha virt. eigenvalues --    0.23193   0.23193   0.29002   0.60972   0.60972
 Alpha virt. eigenvalues --    0.61793   0.86972   0.86972   1.22889   1.22889
 Alpha virt. eigenvalues --    1.24708   1.36676   1.57347   1.77313   1.77313
 Alpha virt. eigenvalues --    1.97505   1.97505   2.36638   2.50904   2.50904
     Molecular Orbital Coefficients:
                           1         2         3         4         5
                           O         O         O         O      (A1)--V
     Eigenvalues --    -6.54546  -0.45393  -0.30670  -0.30670  -0.11032
   1 1   B  1S          0.98889   0.24284   0.00000   0.00000   0.00000
   2        2S         -0.04390   0.48575   0.00000   0.00000   0.00000
   3        3S          0.02368   0.17139   0.00000   0.00000   0.00000
   4        4PX         0.00000   0.00000   0.42473   0.00000   0.00000
   5        4PY         0.00000  -0.00000   0.00000   0.42473   0.00000
   6        4PZ         0.00000  -0.00000   0.00000  -0.00000   0.57771
   7        5PX         0.00000   0.00000  -0.13613   0.00000   0.00000
   8        5PY        -0.00000   0.00000   0.00000  -0.13613  -0.00000
   9        5PZ         0.00000   0.00000   0.00000   0.00000  -0.54335
  10        6D 0        0.00255  -0.00316   0.00000  -0.00000   0.00000
  11        6D+1        0.00000   0.00000  -0.00000   0.00000   0.00000
  12        6D-1        0.00000   0.00000   0.00000  -0.00000   0.00000
  13        6D+2       -0.00000  -0.00000   0.00000   0.01766   0.00000
  14        6D-2        0.00000   0.00000   0.01766   0.00000   0.00000
  15 2   H  1S          0.00446   0.20624   0.00000  -0.36641  -0.00000
  16        2S         -0.00445   0.04846   0.00000  -0.17436  -0.00000
  17        3PX         0.00000   0.00000  -0.00810   0.00000   0.00000
  18        3PY        -0.00081  -0.01897   0.00000   0.01036   0.00000
  19        3PZ        -0.00000  -0.00000   0.00000   0.00000  -0.02116
  20 3   H  1S          0.00446   0.20624   0.31732   0.18321  -0.00000
  21        2S         -0.00445   0.04846   0.15100   0.08718  -0.00000
  22        3PX         0.00070   0.01642   0.00575   0.00800  -0.00000
  23        3PY         0.00040   0.00948   0.00800  -0.00348  -0.00000
  24        3PZ        -0.00000  -0.00000  -0.00000  -0.00000  -0.02116
  25 4   H  1S          0.00446   0.20624  -0.31732   0.18321  -0.00000
  26        2S         -0.00445   0.04846  -0.15100   0.08718  -0.00000
  27        3PX        -0.00070  -0.01642   0.00575  -0.00800   0.00000
  28        3PY         0.00040   0.00948  -0.00800  -0.00348  -0.00000
  29        3PZ        -0.00000  -0.00000   0.00000  -0.00000  -0.02116
                           6         7         8         9        10
                           V         V         V         V         V
     Eigenvalues --     0.11933   0.11933   0.12425   0.17668   0.23193
   1 1   B  1S          0.00000   0.00000   0.21677  -0.17772   0.00000
   2        2S          0.00000   0.00000   0.88449  -1.28520   0.00000
   3        3S          0.00000   0.00000   2.74539   3.49020   0.00000
   4        4PX         0.00000  -0.32253   0.00000   0.00000   0.79411
   5        4PY         0.32253   0.00000  -0.00000  -0.00000   0.00000
   6        4PZ         0.00000   0.00000  -0.00000  -0.00000   0.00000
   7        5PX         0.00000   2.10666   0.00000   0.00000   1.06554
   8        5PY        -2.10666   0.00000   0.00000   0.00000   0.00000
   9        5PZ        -0.00000   0.00000   0.00000   0.00000   0.00000
  10        6D 0        0.00000   0.00000   0.03572   0.03607   0.00000
  11        6D+1        0.00000  -0.00000   0.00000   0.00000  -0.00000
  12        6D-1        0.00000   0.00000  -0.00000  -0.00000   0.00000
  13        6D+2       -0.05326   0.00000   0.00000   0.00000   0.00000
  14        6D-2        0.00000   0.05326   0.00000   0.00000   0.01211
  15 2   H  1S          0.16194   0.00000  -0.11721  -0.17115   0.00000
  16        2S          2.23763   0.00000  -1.48737  -0.82723   0.00000
  17        3PX         0.00000   0.03289   0.00000   0.00000   0.00089
  18        3PY         0.01055   0.00000  -0.01561   0.01079   0.00000
  19        3PZ         0.00000   0.00000   0.00000   0.00000   0.00000
  20 3   H  1S         -0.08097   0.14024  -0.11721  -0.17115   0.22690
  21        2S         -1.11881   1.93784  -1.48737  -0.82723  -0.13146
  22        3PX         0.01881   0.00031   0.01352  -0.00935   0.02911
  23        3PY        -0.02203  -0.01881   0.00781  -0.00540   0.01630
  24        3PZ        -0.00000   0.00000   0.00000   0.00000  -0.00000
  25 4   H  1S         -0.08097  -0.14024  -0.11721  -0.17115  -0.22690
  26        2S         -1.11881  -1.93784  -1.48737  -0.82723   0.13146
  27        3PX        -0.01881   0.00031  -0.01352   0.00935   0.02911
  28        3PY        -0.02203   0.01881   0.00781  -0.00540  -0.01630
  29        3PZ        -0.00000  -0.00000   0.00000   0.00000   0.00000
                          11        12        13        14        15
                           V      (A1)--V      V         V         V
     Eigenvalues --     0.23193   0.29002   0.60972   0.60972   0.61793
   1 1   B  1S         -0.00000   0.00000  -0.00000   0.00000  -0.17139
   2        2S         -0.00000   0.00000  -0.00000   0.00000  -0.75174
   3        3S          0.00000  -0.00000   0.00000   0.00000   3.83634
   4        4PX         0.00000   0.00000   0.00000   0.62743   0.00000
   5        4PY         0.79411   0.00000  -0.62743   0.00000   0.00000
   6        4PZ         0.00000   1.02988   0.00000   0.00000   0.00000
   7        5PX         0.00000   0.00000   0.00000   1.70327   0.00000
   8        5PY         1.06554  -0.00000  -1.70327   0.00000   0.00000
   9        5PZ         0.00000   1.06376   0.00000   0.00000   0.00000
  10        6D 0        0.00000   0.00000  -0.00000   0.00000  -0.26217
  11        6D+1        0.00000   0.00000   0.00000   0.00000   0.00000
  12        6D-1       -0.00000   0.00000  -0.00000   0.00000  -0.00000
  13        6D+2        0.01211  -0.00000   0.35492   0.00000  -0.00000
  14        6D-2        0.00000   0.00000   0.00000  -0.35492   0.00000
  15 2   H  1S         -0.26201  -0.00000  -0.89362   0.00000   0.73791
  16        2S          0.15180   0.00000   2.32494   0.00000  -1.87501
  17        3PX         0.00000   0.00000   0.00000  -0.05523   0.00000
  18        3PY         0.03852   0.00000  -0.11794   0.00000   0.07524
  19        3PZ         0.00000  -0.01798  -0.00000   0.00000  -0.00000
  20 3   H  1S          0.13100  -0.00000   0.44681  -0.77390   0.73791
  21        2S         -0.07590   0.00000  -1.16247   2.01346  -1.87501
  22        3PX         0.01630  -0.00000  -0.07499   0.07465  -0.06516
  23        3PY         0.01030  -0.00000   0.01194   0.07499  -0.03762
  24        3PZ        -0.00000  -0.01798   0.00000  -0.00000  -0.00000
  25 4   H  1S          0.13100  -0.00000   0.44681   0.77390   0.73791
  26        2S         -0.07590   0.00000  -1.16247  -2.01346  -1.87501
  27        3PX        -0.01630   0.00000   0.07499   0.07465   0.06516
  28        3PY         0.01030  -0.00000   0.01194  -0.07499  -0.03762
  29        3PZ        -0.00000  -0.01798   0.00000   0.00000  -0.00000
                          16        17        18        19        20
                           V         V         V         V         V
     Eigenvalues --     0.86972   0.86972   1.22889   1.22889   1.24708
   1 1   B  1S          0.00000   0.00000   0.00000   0.00000  -0.05412
   2        2S          0.00000  -0.00000   0.00000   0.00000  -0.10423
   3        3S          0.00000   0.00000   0.00000   0.00000  -0.27309
   4        4PX         0.00000   0.00000   0.00000   0.30038   0.00000
   5        4PY         0.00000   0.00000   0.30038   0.00000   0.00000
   6        4PZ         0.00000  -0.00000   0.00000   0.00000   0.00000
   7        5PX        -0.00000   0.00000   0.00000  -0.47873   0.00000
   8        5PY         0.00000  -0.00000  -0.47873   0.00000  -0.00000
   9        5PZ         0.00000  -0.00000  -0.00000   0.00000  -0.00000
  10        6D 0        0.00000   0.00000  -0.00000   0.00000   1.03847
  11        6D+1        0.78316   0.00000   0.00000  -0.00000   0.00000
  12        6D-1        0.00000   0.78316  -0.00000   0.00000  -0.00000
  13        6D+2        0.00000   0.00000   0.72315   0.00000   0.00000
  14        6D-2        0.00000   0.00000   0.00000   0.72315   0.00000
  15 2   H  1S          0.00000   0.00000   0.73877   0.00000   0.47133
  16        2S          0.00000   0.00000  -0.04670   0.00000  -0.08540
  17        3PX         0.00000   0.00000   0.00000   0.38027   0.00000
  18        3PY         0.00000  -0.00000   0.17906   0.00000   0.09022
  19        3PZ         0.00000   0.29537  -0.00000   0.00000   0.00000
  20 3   H  1S         -0.00000  -0.00000  -0.36938  -0.63979   0.47133
  21        2S         -0.00000  -0.00000   0.02335   0.04044  -0.08540
  22        3PX         0.00000  -0.00000  -0.08712   0.22936  -0.07813
  23        3PY        -0.00000   0.00000   0.32997  -0.08712  -0.04511
  24        3PZ        -0.25580  -0.14768   0.00000   0.00000   0.00000
  25 4   H  1S          0.00000  -0.00000  -0.36938   0.63979   0.47133
  26        2S          0.00000  -0.00000   0.02335  -0.04044  -0.08540
  27        3PX         0.00000   0.00000   0.08712   0.22936   0.07813
  28        3PY         0.00000   0.00000   0.32997   0.08712  -0.04511
  29        3PZ         0.25580  -0.14768   0.00000  -0.00000   0.00000
                          21        22        23        24        25
                           V      (A1)--V      V         V         V
     Eigenvalues --     1.36676   1.57347   1.77313   1.77313   1.97505
   1 1   B  1S          0.00000   0.00000  -0.00000   0.00000   0.00000
   2        2S          0.00000   0.00000  -0.00000   0.00000   0.00000
   3        3S          0.00000  -0.00000   0.00000   0.00000  -0.00000
   4        4PX        -0.00000   0.00000   0.00000   0.00000   0.00000
   5        4PY         0.00000  -0.00000  -0.00000   0.00000   0.46989
   6        4PZ         0.00000   0.29905   0.00000   0.00000   0.00000
   7        5PX        -0.00000   0.00000   0.00000  -0.00000   0.00000
   8        5PY         0.00000   0.00000   0.00000   0.00000  -0.53637
   9        5PZ         0.00000  -0.21188  -0.00000   0.00000  -0.00000
  10        6D 0        0.00000  -0.00000  -0.00000   0.00000  -0.00000
  11        6D+1       -0.00000   0.00000   0.00000   0.80239   0.00000
  12        6D-1        0.00000   0.00000  -0.80239   0.00000  -0.00000
  13        6D+2        0.00000  -0.00000   0.00000   0.00000  -0.55917
  14        6D-2        0.00000   0.00000   0.00000  -0.00000   0.00000
  15 2   H  1S          0.00000  -0.00000   0.00000   0.00000  -0.14577
  16        2S          0.00000   0.00000  -0.00000   0.00000   0.74961
  17        3PX         0.58119   0.00000   0.00000   0.00000   0.00000
  18        3PY         0.00000  -0.00000   0.00000   0.00000  -0.42829
  19        3PZ         0.00000   0.62362   0.86740   0.00000   0.00000
  20 3   H  1S         -0.00000  -0.00000  -0.00000   0.00000   0.07289
  21        2S         -0.00000   0.00000   0.00000  -0.00000  -0.37480
  22        3PX        -0.29060   0.00000   0.00000   0.00000  -0.54263
  23        3PY         0.50333   0.00000  -0.00000  -0.00000   0.51157
  24        3PZ        -0.00000   0.62362  -0.43370   0.75119  -0.00000
  25 4   H  1S          0.00000  -0.00000  -0.00000  -0.00000   0.07289
  26        2S          0.00000   0.00000   0.00000   0.00000  -0.37480
  27        3PX        -0.29060  -0.00000  -0.00000   0.00000   0.54263
  28        3PY        -0.50333   0.00000  -0.00000   0.00000   0.51157
  29        3PZ         0.00000   0.62362  -0.43370  -0.75119  -0.00000
                          26        27        28        29
                           V         V         V         V
     Eigenvalues --     1.97505   2.36638   2.50904   2.50904
   1 1   B  1S          0.00000   0.25711  -0.00000   0.00000
   2        2S          0.00000   1.79086  -0.00000   0.00000
   3        3S          0.00000   0.73128  -0.00000   0.00000
   4        4PX         0.46989   0.00000   0.00000   1.40087
   5        4PY         0.00000   0.00000   1.40087   0.00000
   6        4PZ         0.00000  -0.00000   0.00000   0.00000
   7        5PX        -0.53637   0.00000   0.00000  -0.17159
   8        5PY         0.00000   0.00000  -0.17159   0.00000
   9        5PZ         0.00000   0.00000  -0.00000   0.00000
  10        6D 0        0.00000  -0.80068   0.00000   0.00000
  11        6D+1       -0.00000   0.00000   0.00000  -0.00000
  12        6D-1        0.00000  -0.00000  -0.00000   0.00000
  13        6D+2        0.00000   0.00000   1.39226   0.00000
  14        6D-2       -0.55917   0.00000   0.00000   1.39226
  15 2   H  1S          0.00000  -0.54530   1.12020   0.00000
  16        2S          0.00000  -0.51808   0.30843   0.00000
  17        3PX         0.82486   0.00000   0.00000  -0.38251
  18        3PY         0.00000   0.87589  -1.22455   0.00000
  19        3PZ         0.00000   0.00000  -0.00000   0.00000
  20 3   H  1S          0.12624  -0.54530  -0.56010  -0.97012
  21        2S         -0.64918  -0.51808  -0.15422  -0.26711
  22        3PX        -0.11500  -0.75854  -0.36461  -1.01404
  23        3PY        -0.54263  -0.43794  -0.59302  -0.36461
  24        3PZ        -0.00000   0.00000   0.00000   0.00000
  25 4   H  1S         -0.12624  -0.54530  -0.56010   0.97012
  26        2S          0.64918  -0.51808  -0.15422   0.26711
  27        3PX        -0.11500   0.75854   0.36461  -1.01404
  28        3PY         0.54263  -0.43794  -0.59302   0.36461
  29        3PZ         0.00000   0.00000   0.00000  -0.00000
          Condensed to atoms (all electrons):
               1          2          3          4
     1  B    3.792788   0.413087   0.413087   0.413087
     2  H    0.413087   0.622553  -0.023161  -0.023161
     3  H    0.413087  -0.023161   0.622553  -0.023161
     4  H    0.413087  -0.023161  -0.023161   0.622553
 Mulliken charges:
               1
     1  B   -0.032048
     2  H    0.010683
     3  H    0.010683
     4  H    0.010683
 Sum of Mulliken charges =  -0.00000
 Mulliken charges with hydrogens summed into heavy atoms:
               1
     1  B   -0.000000
 Electronic spatial extent (au):  <R**2>=             34.8205
 Charge=             -0.0000 electrons
 Dipole moment (field-independent basis, Debye):
    X=              0.0000    Y=             -0.0000    Z=             -0.0000  Tot=              0.0000
 Quadrupole moment (field-independent basis, Debye-Ang):
   XX=             -9.1664   YY=             -9.1664   ZZ=             -7.2517
   XY=              0.0000   XZ=              0.0000   YZ=             -0.0000
 Traceless Quadrupole moment (field-independent basis, Debye-Ang):
   XX=             -0.6382   YY=             -0.6382   ZZ=              1.2765
   XY=              0.0000   XZ=              0.0000   YZ=             -0.0000
 Octapole moment (field-independent basis, Debye-Ang**2):
  XXX=             -0.0000  YYY=              0.3397  ZZZ=             -0.0000  XYY=             -0.0000
  XXY=             -0.3397  XXZ=              0.0000  XZZ=             -0.0000  YZZ=              0.0000
  YYZ=              0.0000  XYZ=              0.0000
 Hexadecapole moment (field-independent basis, Debye-Ang**3):
 XXXX=            -23.9037 YYYY=            -23.9037 ZZZZ=             -7.4555 XXXY=              0.0000
 XXXZ=              0.0000 YYYX=             -0.0000 YYYZ=              0.0000 ZZZX=             -0.0000
 ZZZY=              0.0000 XXYY=             -7.9679 XXZZ=             -5.5426 YYZZ=             -5.5426
 XXYZ=             -0.0000 YYXZ=             -0.0000 ZZXY=             -0.0000
 N-N= 7.291111087026D+00 E-N=-7.488334836871D+01  KE= 2.610245883597D+01
 Symmetry A'   KE= 2.470239146292D+01
 Symmetry A"   KE= 1.400067373053D+00
 Orbital energies and kinetic energies (alpha):
                                 1                 2
   1         O                -6.545462         10.713678
   2         O                -0.453926          0.937484
   3         O                -0.306697          0.700034
   4         O                -0.306697          0.700034
   5         (A1)--V          -0.110322          0.654821
   6         V                 0.119329          0.536884
   7         V                 0.119329          0.536884
   8         V                 0.124247          0.990195
   9         V                 0.176682          0.755134
  10         V                 0.231932          0.924927
  11         V                 0.231932          0.924927
  12         (A1)--V           0.290020          1.212377
  13         V                 0.609722          1.644342
  14         V                 0.609722          1.644342
  15         V                 0.617930          1.782389
  16         V                 0.869723          1.631932
  17         V                 0.869723          1.631932
  18         V                 1.228895          2.144951
  19         V                 1.228895          2.144951
  20         V                 1.247078          2.123882
  21         V                 1.366764          2.058298
  22         (A1)--V           1.573473          2.307000
  23         V                 1.773130          2.498987
  24         V                 1.773130          2.498987
  25         V                 1.975046          2.799851
  26         V                 1.975046          2.799851
  27         V                 2.366379          3.741865
  28         V                 2.509042          3.935828
  29         V                 2.509042          3.935828
 Total kinetic energy from orbitals= 2.610245883597D+01
 No NMR shielding tensors so no spin-rotation constants.
 Leave Link  601 at Wed Jan 24 15:19:06 2018, MaxMem=   536870912 cpu:         0.2
 (Enter /home/chemsoft/gaussian/g09e01/g09/l9999.exe)

 Test job not archived.
 1\1\GINC-LENOX07\FOpt\RPBEPBE\def2SVP/W06\B1H3\MARTIN\24-Jan-2018\0\\#
 P PBEPBE/def2SVP/W06 DenFit opt(MaxCycle=100 MaxStep=10 VeryTight NoEi
 genTest) scf(xqc MaxConventionalCycle = 500) int(ultrafinegrid) gfinpu
 t gfoldprint iop(6/7=3) symmetry(loose)\\Borane DF-BP86/def2-SVP\\0,1\
 B,-0.0000000001,0.,0.2282558517\H,-1.2143855491,-0.0000000003,0.228255
 2717\H,0.6071927741,1.0516887356,0.2282552717\H,0.6071927747,-1.051688
 7353,0.2282552717\\Version=ES64L-G09RevE.01\HF=-26.5200824\RMSD=3.187e
 -09\RMSF=1.413e-07\Dipole=0.,0.,0.0000004\Quadrupole=-0.4745211,-0.474
 5211,0.9490421,0.,0.,0.\PG=C03V [C3(B1),3SGV(H1)]\\@


 WOMEN HOLD UP HALF THE SKY. -- MAO TSE TUNG
 Job cpu time:       0 days  0 hours  1 minutes  2.8 seconds.
 File lengths (MBytes):  RWF=      5 Int=      0 D2E=      0 Chk=      1 Scr=      1
 Normal termination of Gaussian 09 at Wed Jan 24 15:19:06 2018.
