 Entering Gaussian System, Link 0=g09
 Input=borane.df-bp86svp.com
 Output=borane.df-bp86svp.log
 Initial command:
 /home/chemsoft/gaussian/g09e01/g09/l1.exe "/scr/martin/g09job.inter1516623431/Gau-5991.inp" -scrdir="/scr/martin/g09job.inter1516623431/"
 Entering Link 1 = /home/chemsoft/gaussian/g09e01/g09/l1.exe PID=      5992.
  
 Copyright (c) 1988,1990,1992,1993,1995,1998,2003,2009,2015,
            Gaussian, Inc.  All Rights Reserved.
  
 This is part of the Gaussian(R) 09 program.  It is based on
 the Gaussian(R) 03 system (copyright 2003, Gaussian, Inc.),
 the Gaussian(R) 98 system (copyright 1998, Gaussian, Inc.),
 the Gaussian(R) 94 system (copyright 1995, Gaussian, Inc.),
 the Gaussian 92(TM) system (copyright 1992, Gaussian, Inc.),
 the Gaussian 90(TM) system (copyright 1990, Gaussian, Inc.),
 the Gaussian 88(TM) system (copyright 1988, Gaussian, Inc.),
 the Gaussian 86(TM) system (copyright 1986, Carnegie Mellon
 University), and the Gaussian 82(TM) system (copyright 1983,
 Carnegie Mellon University). Gaussian is a federally registered
 trademark of Gaussian, Inc.
  
 This software contains proprietary and confidential information,
 including trade secrets, belonging to Gaussian, Inc.
  
 This software is provided under written license and may be
 used, copied, transmitted, or stored only in accord with that
 written license.
  
 The following legend is applicable only to US Government
 contracts under FAR:
  
                    RESTRICTED RIGHTS LEGEND
  
 Use, reproduction and disclosure by the US Government is
 subject to restrictions as set forth in subparagraphs (a)
 and (c) of the Commercial Computer Software - Restricted
 Rights clause in FAR 52.227-19.
  
 Gaussian, Inc.
 340 Quinnipiac St., Bldg. 40, Wallingford CT 06492
  
  
 ---------------------------------------------------------------
 Warning -- This program may not be used in any manner that
 competes with the business of Gaussian, Inc. or will provide
 assistance to any competitor of Gaussian, Inc.  The licensee
 of this program is prohibited from giving any competitor of
 Gaussian, Inc. access to this program.  By using this program,
 the user acknowledges that Gaussian, Inc. is engaged in the
 business of creating and licensing software in the field of
 computational chemistry and represents and warrants to the
 licensee that it is not a competitor of Gaussian, Inc. and that
 it will not use this program in any manner prohibited above.
 ---------------------------------------------------------------
  

 Cite this work as:
 Gaussian 09, Revision E.01,
 M. J. Frisch, G. W. Trucks, H. B. Schlegel, G. E. Scuseria, 
 M. A. Robb, J. R. Cheeseman, G. Scalmani, V. Barone, B. Mennucci, 
 G. A. Petersson, H. Nakatsuji, M. Caricato, X. Li, H. P. Hratchian, 
 A. F. Izmaylov, J. Bloino, G. Zheng, J. L. Sonnenberg, M. Hada, 
 M. Ehara, K. Toyota, R. Fukuda, J. Hasegawa, M. Ishida, T. Nakajima, 
 Y. Honda, O. Kitao, H. Nakai, T. Vreven, J. A. Montgomery, Jr., 
 J. E. Peralta, F. Ogliaro, M. Bearpark, J. J. Heyd, E. Brothers, 
 K. N. Kudin, V. N. Staroverov, T. Keith, R. Kobayashi, J. Normand, 
 K. Raghavachari, A. Rendell, J. C. Burant, S. S. Iyengar, J. Tomasi, 
 M. Cossi, N. Rega, J. M. Millam, M. Klene, J. E. Knox, J. B. Cross, 
 V. Bakken, C. Adamo, J. Jaramillo, R. Gomperts, R. E. Stratmann, 
 O. Yazyev, A. J. Austin, R. Cammi, C. Pomelli, J. W. Ochterski, 
 R. L. Martin, K. Morokuma, V. G. Zakrzewski, G. A. Voth, 
 P. Salvador, J. J. Dannenberg, S. Dapprich, A. D. Daniels, 
 O. Farkas, J. B. Foresman, J. V. Ortiz, J. Cioslowski, 
 and D. J. Fox, Gaussian, Inc., Wallingford CT, 2013.
 
 ******************************************
 Gaussian 09:  ES64L-G09RevE.01 30-Nov-2015
                22-Jan-2018 
 ******************************************
 %chk=borane.df-bp86svp.chk
 ----------------------------------------------------------------------
 #P BP86/def2SVP/W06 DenFit opt(MaxCycle=100 MaxStep=10 VeryTight NoEig
 enTest) scf(xqc MaxConventionalCycle = 500) int(ultrafinegrid) gfinput
  gfoldprint iop(6/7=3) symmetry(loose)
 ----------------------------------------------------------------------
 1/6=100,7=1,8=10,11=1,14=-1,18=20,19=15,26=4,38=1/1,3;
 2/9=110,12=2,17=4,18=3,40=1/2;
 3/5=43,7=101,11=2,16=1,24=11,25=1,30=1,71=1,74=404,75=-5,82=40/1,2,3;
 4//1;
 5/5=2,8=3,13=1,38=5,85=500/2,8;
 6/7=3,8=2,9=2,10=2,28=1/1;
 7//1,2,3,16;
 1/6=100,7=1,8=10,11=1,14=-1,18=20,19=15,26=4/3(2);
 2/9=110/2;
 99//99;
 2/9=110/2;
 3/5=43,7=101,11=2,16=1,25=1,30=1,71=1,74=404,75=-5,82=40/1,2,3;
 4/5=5,16=3,69=1/1;
 5/5=2,8=3,13=1,38=5,85=500/2,8;
 7//1,2,3,16;
 1/6=100,7=1,8=10,11=1,14=-1,18=20,19=15,26=4/3(-5);
 2/9=110/2;
 6/7=3,8=2,9=2,10=2,19=2,28=1/1;
 99/9=1/99;
 Leave Link    1 at Mon Jan 22 21:17:11 2018, MaxMem=           0 cpu:         0.1
 (Enter /home/chemsoft/gaussian/g09e01/g09/l101.exe)
 -----------------------
 Borane DF-BP86/def2-SVP
 -----------------------
 Symbolic Z-matrix:
 Charge =  0 Multiplicity = 1
 B                     0.        0.       -0.07057 
 H                    -0.93718   0.        0.32685 
 H                     0.46859   0.81162   0.32685 
 H                     0.46859  -0.81162   0.32685 
 
 NAtoms=      4 NQM=        4 NQMF=       0 NMMI=      0 NMMIF=      0
                NMic=       0 NMicF=      0.
                    Isotopes and Nuclear Properties:
 (Nuclear quadrupole moments (NQMom) in fm**2, nuclear magnetic moments (NMagM)
  in nuclear magnetons)

  Atom         1           2           3           4
 IAtWgt=          11           1           1           1
 AtmWgt=  11.0093053   1.0078250   1.0078250   1.0078250
 NucSpn=           3           1           1           1
 AtZEff=   0.0000000   0.0000000   0.0000000   0.0000000
 NQMom=    4.0590000   0.0000000   0.0000000   0.0000000
 NMagM=    2.6886370   2.7928460   2.7928460   2.7928460
 AtZNuc=   5.0000000   1.0000000   1.0000000   1.0000000
 Leave Link  101 at Mon Jan 22 21:17:11 2018, MaxMem=   536870912 cpu:         0.3
 (Enter /home/chemsoft/gaussian/g09e01/g09/l103.exe)

 GradGradGradGradGradGradGradGradGradGradGradGradGradGradGradGradGradGrad
 Berny optimization.
 Initialization pass.
                           ----------------------------
                           !    Initial Parameters    !
                           ! (Angstroms and Degrees)  !
 --------------------------                            --------------------------
 ! Name  Definition              Value          Derivative Info.                !
 --------------------------------------------------------------------------------
 ! R1    R(1,2)                  1.018          estimate D2E/DX2                !
 ! R2    R(1,3)                  1.018          estimate D2E/DX2                !
 ! R3    R(1,4)                  1.018          estimate D2E/DX2                !
 ! A1    A(2,1,3)              105.7458         estimate D2E/DX2                !
 ! A2    A(2,1,4)              105.7458         estimate D2E/DX2                !
 ! A3    A(3,1,4)              105.7458         estimate D2E/DX2                !
 ! D1    D(2,1,4,3)           -111.8661         estimate D2E/DX2                !
 --------------------------------------------------------------------------------
 Trust Radius=1.00D-01 FncErr=1.00D-07 GrdErr=1.00D-06
 Number of steps in this run=    100 maximum allowed number of steps=    100.
 GradGradGradGradGradGradGradGradGradGradGradGradGradGradGradGradGradGrad

 Leave Link  103 at Mon Jan 22 21:17:12 2018, MaxMem=   536870912 cpu:         0.0
 (Enter /home/chemsoft/gaussian/g09e01/g09/l202.exe)
                          Input orientation:                          
 ---------------------------------------------------------------------
 Center     Atomic      Atomic             Coordinates (Angstroms)
 Number     Number       Type             X           Y           Z
 ---------------------------------------------------------------------
      1          5           0        0.000000    0.000000   -0.070572
      2          1           0       -0.937180    0.000000    0.326851
      3          1           0        0.468590    0.811621    0.326851
      4          1           0        0.468590   -0.811621    0.326851
 ---------------------------------------------------------------------
                    Distance matrix (angstroms):
                    1          2          3          4
     1  B    0.000000
     2  H    1.017964   0.000000
     3  H    1.017964   1.623243   0.000000
     4  H    1.017964   1.623243   1.623243   0.000000
 Stoichiometry    BH3
 Framework group  C3V[C3(B),3SGV(H)]
 Deg. of freedom     2
 Full point group                 C3V     NOp   6
 Largest Abelian subgroup         CS      NOp   2
 Largest concise Abelian subgroup CS      NOp   2
                         Standard orientation:                         
 ---------------------------------------------------------------------
 Center     Atomic      Atomic             Coordinates (Angstroms)
 Number     Number       Type             X           Y           Z
 ---------------------------------------------------------------------
      1          5           0        0.000000    0.000000    0.149034
      2          1           0        0.000000    0.937180   -0.248389
      3          1           0       -0.811621   -0.468590   -0.248389
      4          1           0        0.811621   -0.468590   -0.248389
 ---------------------------------------------------------------------
 Rotational constants (GHZ):    296.8591756    296.8591756    190.3115482
 Leave Link  202 at Mon Jan 22 21:17:12 2018, MaxMem=   536870912 cpu:         0.0
 (Enter /home/chemsoft/gaussian/g09e01/g09/l301.exe)
 Standard basis: def2SVP (5D, 7F)
 ======================================================================================================
                                       Pseudopotential Parameters
 ======================================================================================================
  Center     Atomic      Valence      Angular      Power
  Number     Number     Electrons     Momentum     of R      Exponent        Coefficient   SO-Coeffient
 ======================================================================================================
    1          5
                                   No pseudopotential on this center.
    2          1
                                   No pseudopotential on this center.
    3          1
                                   No pseudopotential on this center.
    4          1
                                   No pseudopotential on this center.
 ======================================================================================================
 Ernie: Thresh=  0.10000D-02 Tol=  0.10000D-05 Strict=F.
 AO basis set in the form of general basis input (Overlap normalization):
      1 0
 S   5 1.00       0.000000000000
      0.8393183009D+03 -0.5628883598D-02
      0.1262646484D+03 -0.4183279461D-01
      0.2862060076D+02 -0.1841748813D+00
      0.7879372271D+01 -0.4683965503D+00
      0.2408885717D+01 -0.4445793088D+00
 S   1 1.00       0.000000000000
      0.2510510904D+00  0.1000000000D+01
 S   1 1.00       0.000000000000
      0.8364886607D-01  0.1000000000D+01
 P   3 1.00       0.000000000000
      0.6033222362D+01 -0.5403250032D-01
      0.1249915787D+01 -0.3019403439D+00
      0.3387167635D+00 -0.7717079166D+00
 P   1 1.00       0.000000000000
      0.9641563235D-01  0.1000000000D+01
 D   1 1.00       0.000000000000
      0.5000000000D+00  0.1000000000D+01
 ****
      2 0
 S   3 1.00       0.000000000000
      0.1301070100D+02  0.3348548481D-01
      0.1962257200D+01  0.2347218709D+00
      0.4445379600D+00  0.8137702853D+00
 S   1 1.00       0.000000000000
      0.1219496200D+00  0.1000000000D+01
 P   1 1.00       0.000000000000
      0.8000000000D+00  0.1000000000D+01
 ****
      3 0
 S   3 1.00       0.000000000000
      0.1301070100D+02  0.3348548481D-01
      0.1962257200D+01  0.2347218709D+00
      0.4445379600D+00  0.8137702853D+00
 S   1 1.00       0.000000000000
      0.1219496200D+00  0.1000000000D+01
 P   1 1.00       0.000000000000
      0.8000000000D+00  0.1000000000D+01
 ****
      4 0
 S   3 1.00       0.000000000000
      0.1301070100D+02  0.3348548481D-01
      0.1962257200D+01  0.2347218709D+00
      0.4445379600D+00  0.8137702853D+00
 S   1 1.00       0.000000000000
      0.1219496200D+00  0.1000000000D+01
 P   1 1.00       0.000000000000
      0.8000000000D+00  0.1000000000D+01
 ****

 ***********************************************************************************************************************************
 *             ATOMIC CENTER             *        ATOMIC ORBITAL       *                     GAUSSIAN FUNCTIONS                    *
 ***********************************************************************************************************************************
 *                                       * FUNCTION    SHELL    SCALE  *                                                           *
 *    ATOM   X-COORD  Y-COORD  Z-COORD   *  NUMBER     TYPE     FACTOR *  EXPONENT    S-COEF      P-COEF      D-COEF      F-COEF   *
 ***********************************************************************************************************************************
 *     B      0.00000  0.00000  0.28163                                                                                            *
+                                                1   S           1.00                                                               
+                                                                      0.839318D+03-.625572D+000.000000D+000.000000D+000.000000D+00 
 *                                                                     0.126265D+03-.112302D+010.000000D+000.000000D+000.000000D+00*
 *                                                                     0.286206D+02-.162424D+010.000000D+000.000000D+000.000000D+00*
 *                                                                     0.787937D+01-.156997D+010.000000D+000.000000D+000.000000D+00*
 *                                                                     0.240889D+01-.612663D+000.000000D+000.000000D+000.000000D+00*
 *                                               2   S           1.00                                                              *
+                                                                      0.251051D+000.252774D+000.000000D+000.000000D+000.000000D+00 
 *                                               3   S           1.00                                                              *
+                                                                      0.836489D-010.110855D+000.000000D+000.000000D+000.000000D+00 
 *                                           4-  6   P           1.00                                                              *
+                                                                      0.603322D+010.000000D+00-.728252D+000.000000D+000.000000D+00 
 *                                                                     0.124992D+010.000000D+00-.568803D+000.000000D+000.000000D+00*
 *                                                                     0.338717D+000.000000D+00-.284242D+000.000000D+000.000000D+00*
 *                                           7-  9   P           1.00                                                              *
+                                                                      0.964156D-010.000000D+000.765816D-010.000000D+000.000000D+00 
 *                                          10- 14   D           1.00                                                              *
+                                                                      0.500000D+000.000000D+000.000000D+000.489336D+000.000000D+00 
 *---------------------------------------------------------------------------------------------------------------------------------*
 *     H      0.00000  1.77101 -0.46939                                                                                            *
+                                               15   S           1.00                                                               
+                                                                      0.130107D+020.163490D+000.000000D+000.000000D+000.000000D+00 
 *                                                                     0.196226D+010.277352D+000.000000D+000.000000D+000.000000D+00*
 *                                                                     0.444538D+000.315750D+000.000000D+000.000000D+000.000000D+00*
 *                                              16   S           1.00                                                              *
+                                                                      0.121950D+000.147077D+000.000000D+000.000000D+000.000000D+00 
 *                                          17- 19   P           1.00                                                              *
+                                                                      0.800000D+000.000000D+000.107846D+010.000000D+000.000000D+00 
 *---------------------------------------------------------------------------------------------------------------------------------*
 *     H     -1.53374 -0.88551 -0.46939                                                                                            *
+                                               20   S           1.00                                                               
+                                                                      0.130107D+020.163490D+000.000000D+000.000000D+000.000000D+00 
 *                                                                     0.196226D+010.277352D+000.000000D+000.000000D+000.000000D+00*
 *                                                                     0.444538D+000.315750D+000.000000D+000.000000D+000.000000D+00*
 *                                              21   S           1.00                                                              *
+                                                                      0.121950D+000.147077D+000.000000D+000.000000D+000.000000D+00 
 *                                          22- 24   P           1.00                                                              *
+                                                                      0.800000D+000.000000D+000.107846D+010.000000D+000.000000D+00 
 *---------------------------------------------------------------------------------------------------------------------------------*
 *     H      1.53374 -0.88551 -0.46939                                                                                            *
+                                               25   S           1.00                                                               
+                                                                      0.130107D+020.163490D+000.000000D+000.000000D+000.000000D+00 
 *                                                                     0.196226D+010.277352D+000.000000D+000.000000D+000.000000D+00*
 *                                                                     0.444538D+000.315750D+000.000000D+000.000000D+000.000000D+00*
 *                                              26   S           1.00                                                              *
+                                                                      0.121950D+000.147077D+000.000000D+000.000000D+000.000000D+00 
 *                                          27- 29   P           1.00                                                              *
+                                                                      0.800000D+000.000000D+000.107846D+010.000000D+000.000000D+00 
 ***********************************************************************************************************************************
 There are    20 symmetry adapted cartesian basis functions of A'  symmetry.
 There are    10 symmetry adapted cartesian basis functions of A"  symmetry.
 There are    19 symmetry adapted basis functions of A'  symmetry.
 There are    10 symmetry adapted basis functions of A"  symmetry.
    29 basis functions,    46 primitive gaussians,    30 cartesian basis functions
     4 alpha electrons        4 beta electrons
       nuclear repulsion energy         8.7755827418 Hartrees.
 IExCor=  404 DFT=T Ex=B Corr=P86 ExCW=0 ScaHFX=  0.000000
 ScaDFX=  1.000000  1.000000  1.000000  1.000000 ScalE2=  1.000000  1.000000
 IRadAn=      5 IRanWt=     -1 IRanGd=            0 ICorTp=0 IEmpDi=  4
 NAtoms=    4 NActive=    4 NUniq=    2 SFac= 4.00D+00 NAtFMM=   60 NAOKFM=F Big=F
 Integral buffers will be    131072 words long.
 Raffenetti 2 integral format.
 Two-electron integral symmetry is turned on.
 Standard density basis: W06 (5D, 7F)
    82 Density fitting functions
 Density basis set in the form of general basis input (Coulomb normalization):
      1 0
 S   7 1.00       0.000000000000
      0.1322201672D+04  0.1533845092D-02
      0.4582370653D+03  0.5602018072D-02
      0.1680023641D+03  0.3186812516D-01
      0.6495776900D+02  0.1195515625D+00
      0.2638718560D+02  0.3174086192D+00
      0.1121086110D+02  0.4163043412D+00
      0.4955446000D+01  0.1476518035D+00
 S   1 1.00       0.000000000000
      0.2265282500D+01 -0.1000000000D+01
 S   1 1.00       0.000000000000
      0.1063808600D+01  0.1000000000D+01
 S   1 1.00       0.000000000000
      0.5095187000D+00  0.1000000000D+01
 S   1 1.00       0.000000000000
      0.2469859000D+00  0.1000000000D+01
 S   1 1.00       0.000000000000
      0.1202089000D+00  0.1000000000D+01
 P   2 1.00       0.000000000000
      0.9356073600D+01 -0.4402070956D+00
      0.3974313100D+01 -0.5918247809D+00
 P   1 1.00       0.000000000000
      0.1664514700D+01  0.1000000000D+01
 P   1 1.00       0.000000000000
      0.6913035000D+00 -0.1000000000D+01
 P   1 1.00       0.000000000000
      0.2863135000D+00  0.1000000000D+01
 D   2 1.00       0.000000000000
      0.2112031300D+01  0.2593317607D+00
      0.7780769000D+00  0.7591984630D+00
 D   1 1.00       0.000000000000
      0.3277101000D+00  0.1000000000D+01
 D   1 1.00       0.000000000000
      0.1449465000D+00  0.1000000000D+01
 F   2 1.00       0.000000000000
      0.1058271800D+01  0.6309763349D+00
      0.4010000000D+00  0.4234377755D+00
 G   1 1.00       0.000000000000
      0.6514300000D+00 -0.1000000000D+01
 ****
      2 0
 S   3 1.00       0.000000000000
      0.1567529270D+02  0.3261158972D-01
      0.3606357800D+01  0.2298046837D+00
      0.1208001600D+01  0.7572083240D+00
 S   1 1.00       0.000000000000
      0.4726794000D+00  0.1000000000D+01
 S   1 1.00       0.000000000000
      0.2018100000D+00  0.1000000000D+01
 P   2 1.00       0.000000000000
      0.2028136500D+01  0.3618361986D+00
      0.5358730000D+00  0.7039303088D+00
 D   1 1.00       0.000000000000
      0.2216512400D+01  0.1000000000D+01
 ****
      3 0
 S   3 1.00       0.000000000000
      0.1567529270D+02  0.3261158972D-01
      0.3606357800D+01  0.2298046837D+00
      0.1208001600D+01  0.7572083240D+00
 S   1 1.00       0.000000000000
      0.4726794000D+00  0.1000000000D+01
 S   1 1.00       0.000000000000
      0.2018100000D+00  0.1000000000D+01
 P   2 1.00       0.000000000000
      0.2028136500D+01  0.3618361986D+00
      0.5358730000D+00  0.7039303088D+00
 D   1 1.00       0.000000000000
      0.2216512400D+01  0.1000000000D+01
 ****
      4 0
 S   3 1.00       0.000000000000
      0.1567529270D+02  0.3261158972D-01
      0.3606357800D+01  0.2298046837D+00
      0.1208001600D+01  0.7572083240D+00
 S   1 1.00       0.000000000000
      0.4726794000D+00  0.1000000000D+01
 S   1 1.00       0.000000000000
      0.2018100000D+00  0.1000000000D+01
 P   2 1.00       0.000000000000
      0.2028136500D+01  0.3618361986D+00
      0.5358730000D+00  0.7039303088D+00
 D   1 1.00       0.000000000000
      0.2216512400D+01  0.1000000000D+01
 ****

 There are    82 symmetry adapted density basis functions of A   symmetry.
 Leave Link  301 at Mon Jan 22 21:17:12 2018, MaxMem=   536870912 cpu:         0.2
 (Enter /home/chemsoft/gaussian/g09e01/g09/l302.exe)
 NPDir=0 NMtPBC=     1 NCelOv=     1 NCel=       1 NClECP=     1 NCelD=      1
         NCelK=      1 NCelE2=     1 NClLst=     1 CellRange=     0.0.
 One-electron integrals computed using PRISM.
 One-electron integral symmetry used in STVInt
   6 Symmetry operations used in ECPInt.
 ECPInt:  NShTT=     120 NPrTT=     400 LenC2=     121 LenP2D=     397.
 LDataN:  DoStor=T MaxTD1= 4 Len=   56
 NBasis=    29 RedAO= T EigKep=  5.59D-03  NBF=    19    10
 NBsUse=    29 1.00D-06 EigRej= -1.00D+00 NBFU=    19    10
 NBasis=       29 NBas6D=       30 NTT=         435   NTT6D=      465
 NDBShl=       30 NDBF=         82 NDBF6D=       97  NNucDB=        0
 IDenFi=        2 ISolve=        0 FullAP=F BlkAPC=T NucTyp=        0
 TolInv= 1.00D-06 TolIt=  1.00D-10 IR12=0.
 FoFCou: FMM=F IPFlag=           0 FMFlag=           0 FMFlg1=           0
         NFxFlg=           0 DoJE=F BraDBF=T KetDBF=T FulRan=T
         wScrn=  0.000000 ICntrl=     600 IOpCl=  3 I1Cent=           6 NGrid=           0
         NMat0=    1 NMatS0=     97 NMatT0=    0 NMatD0=    1 NMtDS0=    0 NMtDT0=    0
 Petite list used in FoFCou.
 DBF EigKep=  1.93D-04 EigRej= -1.00D+00
 NDBF=     82  NBFD=    82
 NRank=    82 NBFDU=    82
 S*AI*S=  5.45769669563    
 Precomputing XC quadrature grid using
 IXCGrd= 4 IRadAn=           5 IRanWt=          -1 IRanGd=           0 AccXCQ= 0.00D+00.
 Generated NRdTot=       0 NPtTot=           0 NUsed=           0 NTot=          32
 NSgBfM=    30    30    30    30    30 MxSgAt=     4 MxSgA2=     4.
 Leave Link  302 at Mon Jan 22 21:17:12 2018, MaxMem=   536870912 cpu:         0.4
 (Enter /home/chemsoft/gaussian/g09e01/g09/l303.exe)
 DipDrv:  MaxL=1.
 Leave Link  303 at Mon Jan 22 21:17:12 2018, MaxMem=   536870912 cpu:         0.0
 (Enter /home/chemsoft/gaussian/g09e01/g09/l401.exe)
 ExpMin= 8.36D-02 ExpMax= 8.39D+02 ExpMxC= 1.26D+02 IAcc=3 IRadAn=         5 AccDes= 0.00D+00
 Harris functional with IExCor=  404 and IRadAn=       5 diagonalized for initial guess.
 HarFok:  IExCor=  404 AccDes= 0.00D+00 IRadAn=         5 IDoV= 1 UseB2=F ITyADJ=14
 ICtDFT=  3500011 ScaDFX=  1.000000  1.000000  1.000000  1.000000
 FoFCou: FMM=F IPFlag=           0 FMFlag=      100000 FMFlg1=           0
         NFxFlg=           0 DoJE=T BraDBF=F KetDBF=T FulRan=T
         wScrn=  0.000000 ICntrl=     500 IOpCl=  0 I1Cent=   200000004 NGrid=           0
         NMat0=    1 NMatS0=      1 NMatT0=    0 NMatD0=    1 NMtDS0=    0 NMtDT0=    0
 Petite list used in FoFCou.
 Harris En= -26.5525145885294    
 JPrj=0 DoOrth=F DoCkMO=F.
 Initial guess orbital symmetries:
       Occupied  (A1) (A1) (E) (E)
       Virtual   (A1) (A1) (E) (E) (E) (E) (A1) (A1) (E) (E) (E)
                 (E) (A1) (A1) (A2) (E) (E) (E) (E) (A1) (E) (E)
                 (A1) (E) (E)
 The electronic state of the initial guess is 1-A1.
 Leave Link  401 at Mon Jan 22 21:17:13 2018, MaxMem=   536870912 cpu:         0.4
 (Enter /home/chemsoft/gaussian/g09e01/g09/l502.exe)
 Closed shell SCF:
 Density fitting will be used, IDenFit= 2 NucTyp=  0.
 Using DIIS extrapolation, IDIIS=  1040.
 Integral symmetry usage will be decided dynamically.
 IVT=      257426 IEndB=      257426 NGot=   536870912 MDV=   536865417
 LenX=   536865417 LenY=   536864076
 Requested convergence on RMS density matrix=1.00D-08 within 500 cycles.
 Requested convergence on MAX density matrix=1.00D-06.
 Requested convergence on             energy=1.00D-06.
 No special actions if energy rises.
 Fock matrices will be formed incrementally for  20 cycles.

 Cycle   1  Pass 0  IDiag  1:
 FoFCou: FMM=F IPFlag=           0 FMFlag=      100000 FMFlg1=           0
         NFxFlg=           0 DoJE=T BraDBF=T KetDBF=F FulRan=T
         wScrn=  0.000000 ICntrl=     500 IOpCl=  0 I1Cent=           5 NGrid=           0
         NMat0=    1 NMatS0=      1 NMatT0=    0 NMatD0=    1 NMtDS0=    0 NMtDT0=    0
 Petite list used in FoFCou.
 FoFJK:  IHMeth= 1 ICntrl=     500 DoSepK=F KAlg= 0 I1Cent=   4 FoldK=F
 IRaf= 990000000 NMat=   1 IRICut=       1 DoRegI=T DoRafI=F ISym2E= 1.
 E= -26.4074767283098    
 DIIS: error= 2.94D-02 at cycle   1 NSaved=   1.
 NSaved= 1 IEnMin= 1 EnMin= -26.4074767283098     IErMin= 1 ErrMin= 2.94D-02
 ErrMax= 2.94D-02  0.00D+00 EMaxC= 1.00D-01 BMatC= 2.82D-02 BMatP= 2.82D-02
 IDIUse=3 WtCom= 7.06D-01 WtEn= 2.94D-01
 Coeff-Com:  0.100D+01
 Coeff-En:   0.100D+01
 Coeff:      0.100D+01
 Gap=     0.139 Goal=   None    Shift=    0.000
 GapD=    0.139 DampG=1.000 DampE=0.500 DampFc=0.5000 IDamp=-1.
 Damping current iteration by 5.00D-01
 RMSDP=1.08D-02 MaxDP=6.69D-02              OVMax= 1.82D-01

 Cycle   2  Pass 0  IDiag  1:
 RMSU=  4.96D-03    CP:  9.55D-01
 E= -26.4336883196787     Delta-E=       -0.026211591369 Rises=F Damp=T
 DIIS: error= 4.92D-03 at cycle   2 NSaved=   2.
 NSaved= 2 IEnMin= 2 EnMin= -26.4336883196787     IErMin= 2 ErrMin= 4.92D-03
 ErrMax= 4.92D-03  0.00D+00 EMaxC= 1.00D-01 BMatC= 9.32D-04 BMatP= 2.82D-02
 IDIUse=3 WtCom= 9.51D-01 WtEn= 4.92D-02
 Coeff-Com: -0.168D+00 0.117D+01
 Coeff-En:   0.000D+00 0.100D+01
 Coeff:     -0.159D+00 0.116D+01
 Gap=     0.163 Goal=   None    Shift=    0.000
 RMSDP=1.56D-03 MaxDP=1.07D-02 DE=-2.62D-02 OVMax= 8.20D-02

 Cycle   3  Pass 0  IDiag  1:
 RMSU=  1.01D-03    CP:  9.48D-01  1.23D+00
 E= -26.4559496119875     Delta-E=       -0.022261292309 Rises=F Damp=F
 DIIS: error= 9.65D-04 at cycle   3 NSaved=   3.
 NSaved= 3 IEnMin= 3 EnMin= -26.4559496119875     IErMin= 3 ErrMin= 9.65D-04
 ErrMax= 9.65D-04  0.00D+00 EMaxC= 1.00D-01 BMatC= 1.43D-05 BMatP= 9.32D-04
 IDIUse=3 WtCom= 9.90D-01 WtEn= 9.65D-03
 Coeff-Com: -0.330D-01 0.151D+00 0.882D+00
 Coeff-En:   0.000D+00 0.000D+00 0.100D+01
 Coeff:     -0.327D-01 0.150D+00 0.883D+00
 Gap=     0.166 Goal=   None    Shift=    0.000
 RMSDP=1.85D-04 MaxDP=1.47D-03 DE=-2.23D-02 OVMax= 2.97D-03

 Cycle   4  Pass 0  IDiag  1:
 RMSU=  1.54D-04    CP:  9.48D-01  1.23D+00  9.01D-01
 E= -26.4559670355570     Delta-E=       -0.000017423570 Rises=F Damp=F
 DIIS: error= 2.73D-04 at cycle   4 NSaved=   4.
 NSaved= 4 IEnMin= 4 EnMin= -26.4559670355570     IErMin= 4 ErrMin= 2.73D-04
 ErrMax= 2.73D-04  0.00D+00 EMaxC= 1.00D-01 BMatC= 1.46D-06 BMatP= 1.43D-05
 IDIUse=3 WtCom= 9.97D-01 WtEn= 2.73D-03
 Coeff-Com: -0.131D-01 0.517D-01 0.331D+00 0.630D+00
 Coeff-En:   0.000D+00 0.000D+00 0.000D+00 0.100D+01
 Coeff:     -0.131D-01 0.515D-01 0.330D+00 0.631D+00
 Gap=     0.166 Goal=   None    Shift=    0.000
 RMSDP=6.34D-05 MaxDP=5.38D-04 DE=-1.74D-05 OVMax= 7.27D-04

 Cycle   5  Pass 0  IDiag  1:
 RMSU=  5.38D-05    CP:  9.48D-01  1.24D+00  9.16D-01  8.68D-01
 E= -26.4559692438453     Delta-E=       -0.000002208288 Rises=F Damp=F
 DIIS: error= 5.78D-05 at cycle   5 NSaved=   5.
 NSaved= 5 IEnMin= 5 EnMin= -26.4559692438453     IErMin= 5 ErrMin= 5.78D-05
 ErrMax= 5.78D-05  0.00D+00 EMaxC= 1.00D-01 BMatC= 6.07D-08 BMatP= 1.46D-06
 IDIUse=1 WtCom= 1.00D+00 WtEn= 0.00D+00
 Coeff-Com: -0.133D-02 0.604D-03 0.706D-02 0.142D+00 0.851D+00
 Coeff:     -0.133D-02 0.604D-03 0.706D-02 0.142D+00 0.851D+00
 Gap=     0.166 Goal=   None    Shift=    0.000
 RMSDP=8.02D-06 MaxDP=7.81D-05 DE=-2.21D-06 OVMax= 1.40D-04

 Initial convergence to 1.0D-05 achieved.  Increase integral accuracy.
 Cycle   6  Pass 1  IDiag  1:
 E= -26.4559683655106     Delta-E=        0.000000878335 Rises=F Damp=F
 DIIS: error= 2.91D-06 at cycle   1 NSaved=   1.
 NSaved= 1 IEnMin= 1 EnMin= -26.4559683655106     IErMin= 1 ErrMin= 2.91D-06
 ErrMax= 2.91D-06  0.00D+00 EMaxC= 1.00D-01 BMatC= 1.44D-10 BMatP= 1.44D-10
 IDIUse=1 WtCom= 1.00D+00 WtEn= 0.00D+00
 Coeff-Com:  0.100D+01
 Coeff:      0.100D+01
 Gap=     0.166 Goal=   None    Shift=    0.000
 RMSDP=8.02D-06 MaxDP=7.81D-05 DE= 8.78D-07 OVMax= 1.44D-05

 Cycle   7  Pass 1  IDiag  1:
 RMSU=  5.47D-07    CP:  1.00D+00
 E= -26.4559683656025     Delta-E=       -0.000000000092 Rises=F Damp=F
 DIIS: error= 2.08D-06 at cycle   2 NSaved=   2.
 NSaved= 2 IEnMin= 2 EnMin= -26.4559683656025     IErMin= 2 ErrMin= 2.08D-06
 ErrMax= 2.08D-06  0.00D+00 EMaxC= 1.00D-01 BMatC= 6.19D-11 BMatP= 1.44D-10
 IDIUse=1 WtCom= 1.00D+00 WtEn= 0.00D+00
 Coeff-Com:  0.393D+00 0.607D+00
 Coeff:      0.393D+00 0.607D+00
 Gap=     0.166 Goal=   None    Shift=    0.000
 RMSDP=3.02D-07 MaxDP=1.55D-06 DE=-9.19D-11 OVMax= 6.61D-06

 Cycle   8  Pass 1  IDiag  1:
 RMSU=  2.41D-07    CP:  1.00D+00  6.77D-01
 E= -26.4559683656968     Delta-E=       -0.000000000094 Rises=F Damp=F
 DIIS: error= 1.70D-07 at cycle   3 NSaved=   3.
 NSaved= 3 IEnMin= 3 EnMin= -26.4559683656968     IErMin= 3 ErrMin= 1.70D-07
 ErrMax= 1.70D-07  0.00D+00 EMaxC= 1.00D-01 BMatC= 5.48D-13 BMatP= 6.19D-11
 IDIUse=1 WtCom= 1.00D+00 WtEn= 0.00D+00
 Coeff-Com:  0.367D-01 0.124D+00 0.840D+00
 Coeff:      0.367D-01 0.124D+00 0.840D+00
 Gap=     0.166 Goal=   None    Shift=    0.000
 RMSDP=2.74D-08 MaxDP=2.71D-07 DE=-9.43D-11 OVMax= 5.15D-07

 Cycle   9  Pass 1  IDiag  1:
 RMSU=  1.83D-08    CP:  1.00D+00  7.05D-01  9.44D-01
 E= -26.4559683656976     Delta-E=       -0.000000000001 Rises=F Damp=F
 DIIS: error= 3.49D-08 at cycle   4 NSaved=   4.
 NSaved= 4 IEnMin= 4 EnMin= -26.4559683656976     IErMin= 4 ErrMin= 3.49D-08
 ErrMax= 3.49D-08  0.00D+00 EMaxC= 1.00D-01 BMatC= 2.37D-14 BMatP= 5.48D-13
 IDIUse=1 WtCom= 1.00D+00 WtEn= 0.00D+00
 Coeff-Com: -0.158D-03 0.252D-01 0.282D+00 0.693D+00
 Coeff:     -0.158D-03 0.252D-01 0.282D+00 0.693D+00
 Gap=     0.166 Goal=   None    Shift=    0.000
 RMSDP=8.50D-09 MaxDP=8.11D-08 DE=-8.46D-13 OVMax= 8.88D-08

 SCF Done:  E(RB-P86) =  -26.4559683657     A.U. after    9 cycles
            NFock=  9  Conv=0.85D-08     -V/T= 1.9874
 KE= 2.679448459989D+01 PE=-7.822434539542D+01 EE= 1.619830968800D+01
 Leave Link  502 at Mon Jan 22 21:17:18 2018, MaxMem=   536870912 cpu:         4.9
 (Enter /home/chemsoft/gaussian/g09e01/g09/l508.exe)
 QCSCF skips out because SCF is already converged.
 Leave Link  508 at Mon Jan 22 21:17:18 2018, MaxMem=   536870912 cpu:         0.0
 (Enter /home/chemsoft/gaussian/g09e01/g09/l601.exe)
 Copying SCF densities to generalized density rwf, IOpCl= 0 IROHF=0.

 **********************************************************************

            Population analysis using the SCF density.

 **********************************************************************

 Orbital symmetries:
       Occupied  (A1) (A1) (E) (E)
       Virtual   (A1) (A1) (E) (E) (E) (E) (A1) (A1) (E) (E) (E)
                 (E) (A1) (A1) (A2) (E) (E) (E) (E) (A1) (E) (E)
                 (A1) (E) (E)
 The electronic state is 1-A1.
 Alpha  occ. eigenvalues --   -6.51269  -0.49790  -0.30556  -0.30556
 Alpha virt. eigenvalues --   -0.13941   0.14427   0.14517   0.14517   0.23970
 Alpha virt. eigenvalues --    0.23970   0.27837   0.28546   0.66821   0.66821
 Alpha virt. eigenvalues --    0.86441   0.86441   0.88015   1.15579   1.55558
 Alpha virt. eigenvalues --    1.60342   1.60342   1.67791   1.67791   2.07644
 Alpha virt. eigenvalues --    2.21853   2.21853   2.69936   2.94125   2.94125
     Molecular Orbital Coefficients:
                           1         2         3         4         5
                        (A1)--O   (A1)--O   (E)--O    (E)--O    (A1)--V
     Eigenvalues --    -6.51269  -0.49790  -0.30556  -0.30556  -0.13941
   1 1   B  1S          0.98929   0.25117  -0.00000   0.00000  -0.08351
   2        2S         -0.03069   0.37461  -0.00000   0.00000  -0.21333
   3        3S          0.00969   0.20607  -0.00000   0.00000  -0.30560
   4        4PX         0.00000   0.00000   0.00000   0.45686   0.00000
   5        4PY        -0.00000   0.00000   0.45686   0.00000   0.00000
   6        4PZ         0.00402   0.07030  -0.00000   0.00000   0.54612
   7        5PX         0.00000   0.00000   0.00000  -0.14567   0.00000
   8        5PY        -0.00000   0.00000  -0.14567   0.00000  -0.00000
   9        5PZ         0.00236  -0.01945   0.00000   0.00000  -0.43857
  10        6D 0       -0.00007   0.00554   0.00000   0.00000   0.00513
  11        6D+1        0.00000   0.00000   0.00000   0.00964   0.00000
  12        6D-1        0.00000   0.00000   0.00964   0.00000   0.00000
  13        6D+2        0.00000  -0.00000   0.01471   0.00000  -0.00000
  14        6D-2        0.00000   0.00000   0.00000   0.01471   0.00000
  15 2   H  1S         -0.00113   0.25125  -0.37367   0.00000   0.08102
  16        2S          0.00053   0.00886  -0.13958   0.00000   0.03315
  17        3PX         0.00000   0.00000   0.00000  -0.01115   0.00000
  18        3PY         0.00438  -0.03106   0.01485   0.00000  -0.00749
  19        3PZ        -0.00165   0.01112  -0.01070   0.00000  -0.01590
  20 3   H  1S         -0.00113   0.25125   0.18684   0.32361   0.08102
  21        2S          0.00053   0.00886   0.06979   0.12088   0.03315
  22        3PX        -0.00379   0.02690   0.01126   0.00835   0.00648
  23        3PY        -0.00219   0.01553  -0.00465   0.01126   0.00374
  24        3PZ        -0.00165   0.01112   0.00535   0.00927  -0.01590
  25 4   H  1S         -0.00113   0.25125   0.18684  -0.32361   0.08102
  26        2S          0.00053   0.00886   0.06979  -0.12088   0.03315
  27        3PX         0.00379  -0.02690  -0.01126   0.00835  -0.00648
  28        3PY        -0.00219   0.01553  -0.00465  -0.01126   0.00374
  29        3PZ        -0.00165   0.01112   0.00535  -0.00927  -0.01590
                           6         7         8         9        10
                        (A1)--V   (E)--V    (E)--V    (E)--V    (E)--V
     Eigenvalues --     0.14427   0.14517   0.14517   0.23970   0.23970
   1 1   B  1S         -0.18341   0.00000  -0.00000   0.00000  -0.00000
   2        2S         -1.02031   0.00000  -0.00000   0.00000  -0.00000
   3        3S          5.01411   0.00000   0.00000   0.00000  -0.00000
   4        4PX         0.00000  -0.08154   0.00000  -0.77094   0.00000
   5        4PY        -0.00000   0.00000   0.08154   0.00000   0.77094
   6        4PZ        -0.02780   0.00000  -0.00000   0.00000  -0.00000
   7        5PX         0.00000   2.33074   0.00000  -0.14346   0.00000
   8        5PY         0.00000   0.00000  -2.33074   0.00000   0.14346
   9        5PZ        -1.18401   0.00000  -0.00000   0.00000   0.00000
  10        6D 0        0.01557   0.00000   0.00000   0.00000  -0.00000
  11        6D+1        0.00000   0.03801   0.00000   0.02064   0.00000
  12        6D-1        0.00000   0.00000  -0.03801   0.00000  -0.02064
  13        6D+2        0.00000   0.00000  -0.04817   0.00000  -0.01773
  14        6D-2        0.00000   0.04817   0.00000   0.01773   0.00000
  15 2   H  1S         -0.09521   0.00000   0.20786   0.00000  -0.22454
  16        2S         -1.50851   0.00000   2.49577   0.00000   1.30636
  17        3PX         0.00000   0.01820   0.00000   0.02068   0.00000
  18        3PY         0.01207   0.00000   0.00023   0.00000   0.01965
  19        3PZ        -0.01006   0.00000  -0.00799   0.00000  -0.01480
  20 3   H  1S         -0.09521   0.18001  -0.10393  -0.19446   0.11227
  21        2S         -1.50851   2.16140  -1.24788   1.13134  -0.65318
  22        3PX        -0.01045   0.00438   0.00798  -0.00957   0.01747
  23        3PY        -0.00603  -0.00798  -0.01359  -0.01747  -0.01060
  24        3PZ        -0.01006  -0.00692   0.00399  -0.01282   0.00740
  25 4   H  1S         -0.09521  -0.18001  -0.10393   0.19446   0.11227
  26        2S         -1.50851  -2.16140  -1.24788  -1.13134  -0.65318
  27        3PX         0.01045   0.00438  -0.00798  -0.00957  -0.01747
  28        3PY        -0.00603   0.00798  -0.01359   0.01747  -0.01060
  29        3PZ        -0.01006   0.00692   0.00399   0.01282   0.00740
                          11        12        13        14        15
                        (A1)--V   (A1)--V   (E)--V    (E)--V    (E)--V
     Eigenvalues --     0.27837   0.28546   0.66821   0.66821   0.86441
   1 1   B  1S          0.19938  -0.07166   0.00000   0.00000   0.00000
   2        2S          1.33031  -0.38162   0.00000   0.00000   0.00000
   3        3S          7.67076   1.07280   0.00000   0.00000  -0.00000
   4        4PX         0.00000   0.00000   0.53058   0.00000   0.00000
   5        4PY         0.00000   0.00000   0.00000  -0.53058  -0.09202
   6        4PZ         0.09826   0.92279   0.00000   0.00000   0.00000
   7        5PX         0.00000   0.00000   1.71285   0.00000   0.00000
   8        5PY        -0.00000  -0.00000   0.00000  -1.71285  -0.07083
   9        5PZ        -2.24864   0.86126   0.00000  -0.00000   0.00000
  10        6D 0        0.05761   0.00574   0.00000   0.00000   0.00000
  11        6D+1        0.00000   0.00000  -0.28864   0.00000   0.00000
  12        6D-1       -0.00000  -0.00000   0.00000   0.28864   0.61031
  13        6D+2       -0.00000  -0.00000   0.00000   0.38110  -0.43339
  14        6D-2        0.00000   0.00000  -0.38110   0.00000   0.00000
  15 2   H  1S         -0.01049   0.09744   0.00000  -0.72371  -0.06116
  16        2S         -3.62071  -0.36501   0.00000   2.57104   0.14096
  17        3PX         0.00000   0.00000  -0.08276   0.00000   0.00000
  18        3PY        -0.00600  -0.01720   0.00000  -0.16199   0.04796
  19        3PZ        -0.02005  -0.01847   0.00000   0.09039   0.17713
  20 3   H  1S         -0.01049   0.09744  -0.62675   0.36185   0.03058
  21        2S         -3.62071  -0.36501   2.22659  -1.28552  -0.07048
  22        3PX         0.00519   0.01489   0.10080  -0.10598   0.09975
  23        3PY         0.00300   0.00860   0.10598   0.02157  -0.12481
  24        3PZ        -0.02005  -0.01847   0.07828  -0.04519  -0.08857
  25 4   H  1S         -0.01049   0.09744   0.62675   0.36185   0.03058
  26        2S         -3.62071  -0.36501  -2.22659  -1.28552  -0.07048
  27        3PX        -0.00519  -0.01489   0.10080   0.10598  -0.09975
  28        3PY         0.00300   0.00860  -0.10598   0.02157  -0.12481
  29        3PZ        -0.02005  -0.01847  -0.07828  -0.04519  -0.08857
                          16        17        18        19        20
                        (E)--V    (A1)--V   (A1)--V   (A2)--V   (E)--V
     Eigenvalues --     0.86441   0.88015   1.15579   1.55558   1.60342
   1 1   B  1S          0.00000  -0.11232  -0.13668   0.00000  -0.00000
   2        2S          0.00000  -0.19101  -0.38484   0.00000  -0.00000
   3        3S          0.00000   5.83885   1.06613   0.00000   0.00000
   4        4PX        -0.09202   0.00000   0.00000   0.00000   0.00000
   5        4PY         0.00000  -0.00000  -0.00000   0.00000   0.41044
   6        4PZ         0.00000  -0.21128  -0.38413   0.00000  -0.00000
   7        5PX        -0.07083   0.00000   0.00000   0.00000   0.00000
   8        5PY         0.00000  -0.00000  -0.00000   0.00000  -0.04563
   9        5PZ         0.00000  -1.51582  -0.16914   0.00000  -0.00000
  10        6D 0        0.00000  -0.55286   0.69326   0.00000   0.00000
  11        6D+1        0.61031   0.00000   0.00000   0.00000   0.00000
  12        6D-1        0.00000   0.00000   0.00000   0.00000   0.52479
  13        6D+2        0.00000  -0.00000   0.00000   0.00000   0.68200
  14        6D-2       -0.43339   0.00000   0.00000   0.00000   0.00000
  15 2   H  1S          0.00000   0.62592   0.67548   0.00000   0.94144
  16        2S          0.00000  -2.70419  -0.67589   0.00000  -0.61519
  17        3PX        -0.18240   0.00000   0.00000   0.61216   0.00000
  18        3PY         0.00000   0.16541   0.14609   0.00000   0.46584
  19        3PZ         0.00000   0.03825  -0.17404   0.00000   0.07221
  20 3   H  1S          0.05297   0.62592   0.67548  -0.00000  -0.47072
  21        2S         -0.12207  -2.70419  -0.67589   0.00000   0.30760
  22        3PX        -0.00963  -0.14325  -0.12651  -0.30608   0.13260
  23        3PY         0.09975  -0.08271  -0.07304   0.53015   0.23618
  24        3PZ        -0.15340   0.03825  -0.17404  -0.00000  -0.03610
  25 4   H  1S         -0.05297   0.62592   0.67548   0.00000  -0.47072
  26        2S          0.12207  -2.70419  -0.67589  -0.00000   0.30760
  27        3PX        -0.00963   0.14325   0.12651  -0.30608  -0.13260
  28        3PY        -0.09975  -0.08271  -0.07304  -0.53015   0.23618
  29        3PZ         0.15340   0.03825  -0.17404   0.00000  -0.03610
                          21        22        23        24        25
                        (E)--V    (E)--V    (E)--V    (A1)--V   (E)--V
     Eigenvalues --     1.60342   1.67791   1.67791   2.07644   2.21853
   1 1   B  1S          0.00000  -0.00000   0.00000  -0.02815   0.00000
   2        2S          0.00000  -0.00000   0.00000  -0.47417   0.00000
   3        3S          0.00000   0.00000   0.00000   0.58794  -0.00000
   4        4PX        -0.41044   0.00000  -0.08384   0.00000   0.00000
   5        4PY         0.00000   0.08384   0.00000  -0.00000  -0.02381
   6        4PZ         0.00000  -0.00000   0.00000   0.40589   0.00000
   7        5PX         0.04563   0.00000   0.12025   0.00000   0.00000
   8        5PY         0.00000  -0.12025   0.00000  -0.00000   0.16056
   9        5PZ         0.00000  -0.00000   0.00000  -0.28583  -0.00000
  10        6D 0        0.00000   0.00000   0.00000   0.96505   0.00000
  11        6D+1       -0.52479   0.00000   0.62602   0.00000   0.00000
  12        6D-1        0.00000  -0.62602   0.00000   0.00000  -0.58760
  13        6D+2        0.00000  -0.35710   0.00000  -0.00000   1.17138
  14        6D-2       -0.68200   0.00000   0.35710   0.00000   0.00000
  15 2   H  1S          0.00000  -0.40705   0.00000   0.20851   0.28820
  16        2S          0.00000   0.25091   0.00000  -0.21926  -0.08651
  17        3PX        -0.15962   0.00000  -0.40495   0.00000   0.00000
  18        3PY         0.00000   0.27267   0.00000   0.17569   0.03375
  19        3PZ         0.00000   0.71896   0.00000   0.75541   0.57949
  20 3   H  1S          0.81531   0.20352  -0.35252   0.20851  -0.14410
  21        2S         -0.53277  -0.12545   0.21729  -0.21926   0.04326
  22        3PX        -0.38929  -0.05728  -0.30574  -0.15215   0.45686
  23        3PY        -0.13260   0.37188   0.05728  -0.08785  -0.75756
  24        3PZ         0.06253  -0.35948   0.62263   0.75541  -0.28974
  25 4   H  1S         -0.81531   0.20352   0.35252   0.20851  -0.14410
  26        2S          0.53277  -0.12545  -0.21729  -0.21926   0.04326
  27        3PX        -0.38929   0.05728  -0.30574   0.15215  -0.45686
  28        3PY         0.13260   0.37188  -0.05728  -0.08785  -0.75756
  29        3PZ        -0.06253  -0.35948  -0.62263   0.75541  -0.28974
                          26        27        28        29
                        (E)--V    (A1)--V   (E)--V    (E)--V
     Eigenvalues --     2.21853   2.69936   2.94125   2.94125
   1 1   B  1S          0.00000   0.18885   0.00000   0.00000
   2        2S          0.00000   3.49452   0.00000   0.00000
   3        3S          0.00000   1.27959   0.00000   0.00000
   4        4PX        -0.02381   0.00000   2.43174   0.00000
   5        4PY         0.00000  -0.00000   0.00000   2.43174
   6        4PZ         0.00000   1.34418   0.00000   0.00000
   7        5PX         0.16056   0.00000  -0.23645   0.00000
   8        5PY         0.00000   0.00000   0.00000  -0.23645
   9        5PZ         0.00000  -0.44966   0.00000  -0.00000
  10        6D 0        0.00000  -0.40494   0.00000  -0.00000
  11        6D+1       -0.58760   0.00000   1.10725   0.00000
  12        6D-1        0.00000  -0.00000   0.00000   1.10725
  13        6D+2        0.00000  -0.00000   0.00000   1.04278
  14        6D-2        1.17138   0.00000   1.04278   0.00000
  15 2   H  1S          0.00000  -1.14059   0.00000   2.09694
  16        2S          0.00000  -0.90501   0.00000   0.44641
  17        3PX        -1.02133   0.00000   0.20473   0.00000
  18        3PY         0.00000   0.97044   0.00000  -1.35116
  19        3PZ         0.00000  -0.25800   0.00000   0.54941
  20 3   H  1S         -0.24959  -1.14059  -1.81600  -1.04847
  21        2S          0.07492  -0.90501  -0.38660  -0.22321
  22        3PX        -0.23002  -0.84043  -0.96218  -0.67372
  23        3PY         0.45686  -0.48522  -0.67372  -0.18424
  24        3PZ        -0.50185  -0.25800  -0.47581  -0.27471
  25 4   H  1S          0.24959  -1.14059   1.81600  -1.04847
  26        2S         -0.07492  -0.90501   0.38660  -0.22321
  27        3PX        -0.23002   0.84043  -0.96218   0.67372
  28        3PY        -0.45686  -0.48522   0.67372  -0.18424
  29        3PZ         0.50185  -0.25800   0.47581  -0.27471
          Condensed to atoms (all electrons):
               1          2          3          4
     1  B    3.808829   0.435446   0.435446   0.435446
     2  H    0.435446   0.596745  -0.035290  -0.035290
     3  H    0.435446  -0.035290   0.596745  -0.035290
     4  H    0.435446  -0.035290  -0.035290   0.596745
 Mulliken charges:
               1
     1  B   -0.115168
     2  H    0.038389
     3  H    0.038389
     4  H    0.038389
 Sum of Mulliken charges =  -0.00000
 Mulliken charges with hydrogens summed into heavy atoms:
               1
     1  B   -0.000000
 Electronic spatial extent (au):  <R**2>=             28.0301
 Charge=             -0.0000 electrons
 Dipole moment (field-independent basis, Debye):
    X=             -0.0000    Y=              0.0000    Z=              0.9934  Tot=              0.9934
 Quadrupole moment (field-independent basis, Debye-Ang):
   XX=             -8.8039   YY=             -8.8039   ZZ=             -6.0153
   XY=              0.0000   XZ=              0.0000   YZ=              0.0000
 Traceless Quadrupole moment (field-independent basis, Debye-Ang):
   XX=             -0.9295   YY=             -0.9295   ZZ=              1.8591
   XY=              0.0000   XZ=              0.0000   YZ=              0.0000
 Octapole moment (field-independent basis, Debye-Ang**2):
  XXX=              0.0000  YYY=              0.0207  ZZZ=              0.9644  XYY=              0.0000
  XXY=             -0.0207  XXZ=             -0.2319  XZZ=              0.0000  YZZ=              0.0000
  YYZ=             -0.2319  XYZ=             -0.0000
 Hexadecapole moment (field-independent basis, Debye-Ang**3):
 XXXX=            -17.7986 YYYY=            -17.7986 ZZZZ=             -6.9971 XXXY=              0.0000
 XXXZ=              0.0000 YYYX=              0.0000 YYYZ=             -0.2293 ZZZX=             -0.0000
 ZZZY=             -0.0000 XXYY=             -5.9329 XXZZ=             -4.1110 YYZZ=             -4.1110
 XXYZ=              0.2293 YYXZ=             -0.0000 ZZXY=              0.0000
 N-N= 8.775582741843D+00 E-N=-7.822434458992D+01  KE= 2.679448459989D+01
 Symmetry A'   KE= 2.517357746058D+01
 Symmetry A"   KE= 1.620907139309D+00
 Orbital energies and kinetic energies (alpha):
                                 1                 2
   1         (A1)--O          -6.512686         10.716542
   2         (A1)--O          -0.497896          1.059793
   3         (E)--O           -0.305562          0.810454
   4         (E)--O           -0.305562          0.810454
   5         (A1)--V          -0.139406          0.718077
   6         (A1)--V           0.144273          0.694295
   7         (E)--V            0.145174          0.447136
   8         (E)--V            0.145174          0.447136
   9         (E)--V            0.239701          0.909612
  10         (E)--V            0.239701          0.909612
  11         (A1)--V           0.278369          0.940927
  12         (A1)--V           0.285458          1.134778
  13         (E)--V            0.668208          1.669679
  14         (E)--V            0.668208          1.669679
  15         (E)--V            0.864415          1.675518
  16         (E)--V            0.864415          1.675518
  17         (A1)--V           0.880154          1.922559
  18         (A1)--V           1.155788          2.321398
  19         (A2)--V           1.555580          2.295531
  20         (E)--V            1.603418          2.631491
  21         (E)--V            1.603418          2.631491
  22         (E)--V            1.677909          2.430434
  23         (E)--V            1.677909          2.430434
  24         (A1)--V           2.076444          2.868060
  25         (E)--V            2.218533          2.963470
  26         (E)--V            2.218533          2.963470
  27         (A1)--V           2.699365          4.302805
  28         (E)--V            2.941252          4.999332
  29         (E)--V            2.941252          4.999332
 Total kinetic energy from orbitals= 2.679448459989D+01
 No NMR shielding tensors so no spin-rotation constants.
 Leave Link  601 at Mon Jan 22 21:17:18 2018, MaxMem=   536870912 cpu:         0.2
 (Enter /home/chemsoft/gaussian/g09e01/g09/l701.exe)
 Compute integral first derivatives.
 ... and contract with generalized density number  0.
   6 Symmetry operations used in ECPInt.
 ECPInt:  NShTT=     120 NPrTT=     400 LenC2=     121 LenP2D=     397.
 LDataN:  DoStor=T MaxTD1= 5 Len=  102
 Leave Link  701 at Mon Jan 22 21:17:18 2018, MaxMem=   536870912 cpu:         0.2
 (Enter /home/chemsoft/gaussian/g09e01/g09/l702.exe)
 L702 exits ... SP integral derivatives will be done elsewhere.
 Leave Link  702 at Mon Jan 22 21:17:18 2018, MaxMem=   536870912 cpu:         0.0
 (Enter /home/chemsoft/gaussian/g09e01/g09/l703.exe)
 Compute integral first derivatives, UseDBF=T ICtDFT=           0.
 Integral derivatives from FoFJK, PRISM(SPDF).
 Calling FoFJK, ICntrl=      2527 FMM=F ISym2X=1 I1Cent= 4 IOpClX= 0 NMat=1 NMatS=1 NMatT=0.
 FoFJK:  IHMeth= 1 ICntrl=    2527 DoSepK=F KAlg= 0 I1Cent=   4 FoldK=F
 IRaf=         0 NMat=   1 IRICut=       1 DoRegI=T DoRafI=F ISym2E= 1.
 FoFCou: FMM=F IPFlag=           0 FMFlag=      100000 FMFlg1=         800
         NFxFlg=           0 DoJE=F BraDBF=F KetDBF=T FulRan=T
         wScrn=  0.000000 ICntrl=    2527 IOpCl=  0 I1Cent=           4 NGrid=           0
         NMat0=    1 NMatS0=      1 NMatT0=    0 NMatD0=    1 NMtDS0=    0 NMtDT0=    0
 Petite list used in FoFCou.
 Leave Link  703 at Mon Jan 22 21:17:19 2018, MaxMem=   536870912 cpu:         0.7
 (Enter /home/chemsoft/gaussian/g09e01/g09/l716.exe)
 Dipole        =-2.22044605D-16 0.00000000D+00 3.90850912D-01
 ***** Axes restored to original set *****
 -------------------------------------------------------------------
 Center     Atomic                   Forces (Hartrees/Bohr)
 Number     Number              X              Y              Z
 -------------------------------------------------------------------
      1        5          -0.000000000    0.000000000   -0.048107060
      2        1          -0.150410684   -0.000000000    0.016035687
      3        1           0.075205342    0.130259473    0.016035687
      4        1           0.075205342   -0.130259473    0.016035687
 -------------------------------------------------------------------
 Cartesian Forces:  Max     0.150410684 RMS     0.076895947
 Leave Link  716 at Mon Jan 22 21:17:19 2018, MaxMem=   536870912 cpu:         0.1
 (Enter /home/chemsoft/gaussian/g09e01/g09/l103.exe)

 GradGradGradGradGradGradGradGradGradGradGradGradGradGradGradGradGradGrad
 Berny optimization.
 FormGI is forming the generalized inverse of G from B-inverse, IUseBI=4.
 Internal  Forces:  Max     0.144734765 RMS     0.101120802
 Search for a local minimum.
 Step number   1 out of a maximum of  100
 All quantities printed in internal units (Hartrees-Bohrs-Radians)
 RMS Force = .10112D+00 SwitMx=.10000D-02 MixMth= 1
 Mixed Optimization -- RFO/linear search
 Second derivative matrix not updated -- first step.
 The second derivative matrix:
                          R1        R2        R3        A1        A2
           R1           0.44664
           R2           0.00000   0.44664
           R3           0.00000   0.00000   0.44664
           A1           0.00000   0.00000   0.00000   0.16000
           A2           0.00000   0.00000   0.00000   0.00000   0.16000
           A3           0.00000   0.00000   0.00000   0.00000   0.00000
           D1           0.00000   0.00000   0.00000   0.00000   0.00000
                          A3        D1
           A3           0.16000
           D1           0.00000   0.01717
 ITU=  0
     Eigenvalues ---    0.07208   0.16000   0.16000   0.44664   0.44664
     Eigenvalues ---    0.44664
 RFO step:  Lambda=-1.42584300D-01 EMin= 7.20824733D-02
 Linear search not attempted -- first point.
 Maximum step size (   0.100) exceeded in Quadratic search.
    -- Step size scaled by   0.195
 Iteration  1 RMS(Cart)=  0.04392756 RMS(Int)=  0.00108181
 Iteration  2 RMS(Cart)=  0.00053622 RMS(Int)=  0.00081572
 Iteration  3 RMS(Cart)=  0.00000130 RMS(Int)=  0.00081572
 Iteration  4 RMS(Cart)=  0.00000000 RMS(Int)=  0.00081572
 ITry= 1 IFail=0 DXMaxC= 6.17D-02 DCOld= 1.00D+10 DXMaxT= 1.00D-01 DXLimC= 3.00D+00 Rises=F
 ClnCor:  largest displacement from symmetrization is 1.07D-02 for atom     4.
 Variable       Old X    -DE/DX   Delta X   Delta X   Delta X     New X
                                 (Linear)    (Quad)   (Total)
    R1        1.92367   0.14473   0.00000   0.04784   0.04491   1.96859
    R2        1.92367   0.14473   0.00000   0.04784   0.04491   1.96859
    R3        1.92367   0.14473   0.00000   0.04784   0.04491   1.96859
    A1        1.84561   0.01202   0.00000   0.01818   0.02886   1.87447
    A2        1.84561   0.05184   0.00000   0.03726   0.02886   1.87447
    A3        1.84561   0.05184   0.00000   0.03726   0.02886   1.87447
    D1       -1.95243  -0.05669   0.00000  -0.05143  -0.05909  -2.01152
         Item               Value     Threshold  Converged?
 Maximum Force            0.144735     0.000002     NO 
 RMS     Force            0.101121     0.000001     NO 
 Maximum Displacement     0.060957     0.000006     NO 
 RMS     Displacement     0.041135     0.000004     NO 
 Predicted change in Energy=-2.460862D-02
 Lowest energy point so far.  Saving SCF results.
 GradGradGradGradGradGradGradGradGradGradGradGradGradGradGradGradGradGrad

 Leave Link  103 at Mon Jan 22 21:17:19 2018, MaxMem=   536870912 cpu:         0.0
 (Enter /home/chemsoft/gaussian/g09e01/g09/l202.exe)
                          Input orientation:                          
 ---------------------------------------------------------------------
 Center     Atomic      Atomic             Coordinates (Angstroms)
 Number     Number       Type             X           Y           Z
 ---------------------------------------------------------------------
      1          5           0       -0.000000   -0.000000   -0.058139
      2          1           0       -0.969437   -0.000000    0.323167
      3          1           0        0.484718    0.839557    0.323167
      4          1           0        0.484718   -0.839557    0.323167
 ---------------------------------------------------------------------
                    Distance matrix (angstroms):
                    1          2          3          4
     1  B    0.000000
     2  H    1.041730   0.000000
     3  H    1.041730   1.679113   0.000000
     4  H    1.041730   1.679113   1.679113   0.000000
 Stoichiometry    BH3
 Framework group  C3V[C3(B),3SGV(H)]
 Deg. of freedom     2
 Full point group                 C3V     NOp   6
 RotChk:  IX=0 Diff= 3.14D-16
 Largest Abelian subgroup         CS      NOp   2
 Largest concise Abelian subgroup CS      NOp   2
                         Standard orientation:                         
 ---------------------------------------------------------------------
 Center     Atomic      Atomic             Coordinates (Angstroms)
 Number     Number       Type             X           Y           Z
 ---------------------------------------------------------------------
      1          5           0        0.000000    0.000000    0.142990
      2          1           0        0.000000    0.969437   -0.238317
      3          1           0       -0.839557   -0.484718   -0.238317
      4          1           0        0.839557   -0.484718   -0.238317
 ---------------------------------------------------------------------
 Rotational constants (GHZ):    286.2323997    286.2323997    177.8574151
 Leave Link  202 at Mon Jan 22 21:17:19 2018, MaxMem=   536870912 cpu:         0.0
 (Enter /home/chemsoft/gaussian/g09e01/g09/l301.exe)
 Standard basis: def2SVP (5D, 7F)
 Ernie: Thresh=  0.10000D-02 Tol=  0.10000D-05 Strict=F.
 There are    20 symmetry adapted cartesian basis functions of A'  symmetry.
 There are    10 symmetry adapted cartesian basis functions of A"  symmetry.
 There are    19 symmetry adapted basis functions of A'  symmetry.
 There are    10 symmetry adapted basis functions of A"  symmetry.
    29 basis functions,    46 primitive gaussians,    30 cartesian basis functions
     4 alpha electrons        4 beta electrons
       nuclear repulsion energy         8.5651442444 Hartrees.
 IExCor=  404 DFT=T Ex=B Corr=P86 ExCW=0 ScaHFX=  0.000000
 ScaDFX=  1.000000  1.000000  1.000000  1.000000 ScalE2=  1.000000  1.000000
 IRadAn=      5 IRanWt=     -1 IRanGd=            0 ICorTp=0 IEmpDi=  4
 NAtoms=    4 NActive=    4 NUniq=    2 SFac= 4.00D+00 NAtFMM=   60 NAOKFM=F Big=F
 Integral buffers will be    131072 words long.
 Raffenetti 2 integral format.
 Two-electron integral symmetry is turned on.
 Standard density basis: W06 (5D, 7F)
    82 Density fitting functions
 There are    82 symmetry adapted density basis functions of A   symmetry.
 Leave Link  301 at Mon Jan 22 21:17:19 2018, MaxMem=   536870912 cpu:         0.2
 (Enter /home/chemsoft/gaussian/g09e01/g09/l302.exe)
 NPDir=0 NMtPBC=     1 NCelOv=     1 NCel=       1 NClECP=     1 NCelD=      1
         NCelK=      1 NCelE2=     1 NClLst=     1 CellRange=     0.0.
 One-electron integrals computed using PRISM.
 One-electron integral symmetry used in STVInt
   6 Symmetry operations used in ECPInt.
 ECPInt:  NShTT=     120 NPrTT=     400 LenC2=     121 LenP2D=     394.
 LDataN:  DoStor=T MaxTD1= 4 Len=   56
 NBasis=    29 RedAO= T EigKep=  6.61D-03  NBF=    19    10
 NBsUse=    29 1.00D-06 EigRej= -1.00D+00 NBFU=    19    10
 NBasis=       29 NBas6D=       30 NTT=         435   NTT6D=      465
 NDBShl=       30 NDBF=         82 NDBF6D=       97  NNucDB=        0
 IDenFi=        2 ISolve=        0 FullAP=F BlkAPC=T NucTyp=        0
 TolInv= 1.00D-06 TolIt=  1.00D-10 IR12=0.
 FoFCou: FMM=F IPFlag=           0 FMFlag=           0 FMFlg1=           0
         NFxFlg=           0 DoJE=F BraDBF=T KetDBF=T FulRan=T
         wScrn=  0.000000 ICntrl=     600 IOpCl=  3 I1Cent=           6 NGrid=           0
         NMat0=    1 NMatS0=     97 NMatT0=    0 NMatD0=    1 NMtDS0=    0 NMtDT0=    0
 Petite list used in FoFCou.
 DBF EigKep=  1.99D-04 EigRej= -1.00D+00
 NDBF=     82  NBFD=    82
 NRank=    82 NBFDU=    82
 S*AI*S=  5.45622086318    
 Precomputing XC quadrature grid using
 IXCGrd= 4 IRadAn=           5 IRanWt=          -1 IRanGd=           0 AccXCQ= 0.00D+00.
 Generated NRdTot=       0 NPtTot=           0 NUsed=           0 NTot=          32
 NSgBfM=    30    30    30    30    30 MxSgAt=     4 MxSgA2=     4.
 Leave Link  302 at Mon Jan 22 21:17:20 2018, MaxMem=   536870912 cpu:         0.4
 (Enter /home/chemsoft/gaussian/g09e01/g09/l303.exe)
 DipDrv:  MaxL=1.
 Leave Link  303 at Mon Jan 22 21:17:20 2018, MaxMem=   536870912 cpu:         0.1
 (Enter /home/chemsoft/gaussian/g09e01/g09/l401.exe)
 Initial guess from the checkpoint file:  "borane.df-bp86svp.chk"
 B after Tr=    -0.000000    0.000000    0.000000
         Rot=    1.000000   -0.000000    0.000000    0.000000 Ang=   0.00 deg.
 Guess basis will be translated and rotated to current coordinates.
 Recovered     1 saved fitting vectors from chk file.
 JPrj=2 DoOrth=T DoCkMO=T.
 Initial guess orbital symmetries:
       Occupied  (A1) (A1) (E) (E)
       Virtual   (?A) (?A) (?A) (?A) (?A) (?A) (?A) (?A) (?A) (?A)
                 (?A) (?A) (?A) (?A) (?A) (?A) (?A) (?A) (?A) (?A)
                 (?A) (?A) (?A) (?A) (?A)
 The electronic state of the initial guess is 1-A1.
 Generating alternative initial guess.
 ExpMin= 8.36D-02 ExpMax= 8.39D+02 ExpMxC= 1.26D+02 IAcc=2 IRadAn=         4 AccDes= 0.00D+00
 Harris functional with IExCor=  404 and IRadAn=       4 diagonalized for initial guess.
 HarFok:  IExCor=  404 AccDes= 0.00D+00 IRadAn=         4 IDoV= 1 UseB2=F ITyADJ=14
 ICtDFT=  3500011 ScaDFX=  1.000000  1.000000  1.000000  1.000000
 FoFCou: FMM=F IPFlag=           0 FMFlag=      100000 FMFlg1=           0
         NFxFlg=           0 DoJE=T BraDBF=F KetDBF=T FulRan=T
         wScrn=  0.000000 ICntrl=     500 IOpCl=  0 I1Cent=   200000004 NGrid=           0
         NMat0=    1 NMatS0=      1 NMatT0=    0 NMatD0=    1 NMtDS0=    0 NMtDT0=    0
 Petite list used in FoFCou.
 Harris En= -26.5663090633475    
 Leave Link  401 at Mon Jan 22 21:17:20 2018, MaxMem=   536870912 cpu:         0.4
 (Enter /home/chemsoft/gaussian/g09e01/g09/l502.exe)
 Closed shell SCF:
 Density fitting will be used, IDenFit= 2 NucTyp=  0.
 Using DIIS extrapolation, IDIIS=  1040.
 Integral symmetry usage will be decided dynamically.
 IVT=      257426 IEndB=      257426 NGot=   536870912 MDV=   536865417
 LenX=   536865417 LenY=   536864076
 Requested convergence on RMS density matrix=1.00D-08 within 500 cycles.
 Requested convergence on MAX density matrix=1.00D-06.
 Requested convergence on             energy=1.00D-06.
 No special actions if energy rises.
 Fock matrices will be formed incrementally for  20 cycles.

 Cycle   1  Pass 0  IDiag  1:
 FoFCou: FMM=F IPFlag=           0 FMFlag=      100000 FMFlg1=           0
         NFxFlg=           0 DoJE=T BraDBF=T KetDBF=F FulRan=T
         wScrn=  0.000000 ICntrl=     500 IOpCl=  0 I1Cent=           5 NGrid=           0
         NMat0=    1 NMatS0=      1 NMatT0=    0 NMatD0=    1 NMtDS0=    0 NMtDT0=    0
 Petite list used in FoFCou.
 FoFJK:  IHMeth= 1 ICntrl=     500 DoSepK=F KAlg= 0 I1Cent=   4 FoldK=F
 IRaf= 990000000 NMat=   1 IRICut=       1 DoRegI=T DoRafI=F ISym2E= 1.
 E= -26.4797932691563    
 DIIS: error= 5.15D-03 at cycle   1 NSaved=   1.
 NSaved= 1 IEnMin= 1 EnMin= -26.4797932691563     IErMin= 1 ErrMin= 5.15D-03
 ErrMax= 5.15D-03  0.00D+00 EMaxC= 1.00D-01 BMatC= 3.40D-04 BMatP= 3.40D-04
 IDIUse=3 WtCom= 9.49D-01 WtEn= 5.15D-02
 Coeff-Com:  0.100D+01
 Coeff-En:   0.100D+01
 Coeff:      0.100D+01
 Gap=     0.670 Goal=   None    Shift=    0.000
 GapD=    0.670 DampG=2.000 DampE=1.000 DampFc=2.0000 IDamp=-1.
 RMSDP=1.10D-03 MaxDP=1.02D-02              OVMax= 1.73D-02

 Cycle   2  Pass 0  IDiag  1:
 RMSU=  1.09D-03    CP:  9.97D-01
 E= -26.4801197319833     Delta-E=       -0.000326462827 Rises=F Damp=F
 DIIS: error= 1.32D-03 at cycle   2 NSaved=   2.
 NSaved= 2 IEnMin= 2 EnMin= -26.4801197319833     IErMin= 2 ErrMin= 1.32D-03
 ErrMax= 1.32D-03  0.00D+00 EMaxC= 1.00D-01 BMatC= 4.19D-05 BMatP= 3.40D-04
 IDIUse=3 WtCom= 9.87D-01 WtEn= 1.32D-02
 Coeff-Com:  0.195D+00 0.805D+00
 Coeff-En:   0.000D+00 0.100D+01
 Coeff:      0.192D+00 0.808D+00
 Gap=     0.170 Goal=   None    Shift=    0.000
 RMSDP=3.11D-04 MaxDP=1.72D-03 DE=-3.26D-04 OVMax= 6.36D-03

 Cycle   3  Pass 0  IDiag  1:
 RMSU=  2.67D-04    CP:  9.99D-01  8.73D-01
 E= -26.4801767552572     Delta-E=       -0.000057023274 Rises=F Damp=F
 DIIS: error= 6.01D-04 at cycle   3 NSaved=   3.
 NSaved= 3 IEnMin= 3 EnMin= -26.4801767552572     IErMin= 3 ErrMin= 6.01D-04
 ErrMax= 6.01D-04  0.00D+00 EMaxC= 1.00D-01 BMatC= 6.90D-06 BMatP= 4.19D-05
 IDIUse=3 WtCom= 9.94D-01 WtEn= 6.01D-03
 Coeff-Com:  0.632D-02 0.291D+00 0.702D+00
 Coeff-En:   0.000D+00 0.000D+00 0.100D+01
 Coeff:      0.628D-02 0.289D+00 0.704D+00
 Gap=     0.170 Goal=   None    Shift=    0.000
 RMSDP=9.02D-05 MaxDP=5.65D-04 DE=-5.70D-05 OVMax= 2.00D-03

 Cycle   4  Pass 0  IDiag  1:
 RMSU=  2.38D-05    CP:  9.98D-01  9.19D-01  7.45D-01
 E= -26.4801876279827     Delta-E=       -0.000010872726 Rises=F Damp=F
 DIIS: error= 2.15D-05 at cycle   4 NSaved=   4.
 NSaved= 4 IEnMin= 4 EnMin= -26.4801876279827     IErMin= 4 ErrMin= 2.15D-05
 ErrMax= 2.15D-05  0.00D+00 EMaxC= 1.00D-01 BMatC= 1.03D-08 BMatP= 6.90D-06
 IDIUse=1 WtCom= 1.00D+00 WtEn= 0.00D+00
 Coeff-Com: -0.414D-03 0.526D-01 0.137D+00 0.810D+00
 Coeff:     -0.414D-03 0.526D-01 0.137D+00 0.810D+00
 Gap=     0.170 Goal=   None    Shift=    0.000
 RMSDP=6.37D-06 MaxDP=4.57D-05 DE=-1.09D-05 OVMax= 8.02D-05

 Initial convergence to 1.0D-05 achieved.  Increase integral accuracy.
 Cycle   5  Pass 1  IDiag  1:
 E= -26.4801880495978     Delta-E=       -0.000000421615 Rises=F Damp=F
 DIIS: error= 8.74D-06 at cycle   1 NSaved=   1.
 NSaved= 1 IEnMin= 1 EnMin= -26.4801880495978     IErMin= 1 ErrMin= 8.74D-06
 ErrMax= 8.74D-06  0.00D+00 EMaxC= 1.00D-01 BMatC= 1.89D-09 BMatP= 1.89D-09
 IDIUse=1 WtCom= 1.00D+00 WtEn= 0.00D+00
 Coeff-Com:  0.100D+01
 Coeff:      0.100D+01
 Gap=     0.170 Goal=   None    Shift=    0.000
 RMSDP=6.37D-06 MaxDP=4.57D-05 DE=-4.22D-07 OVMax= 4.19D-05

 Cycle   6  Pass 1  IDiag  1:
 RMSU=  3.37D-06    CP:  1.00D+00
 E= -26.4801880504550     Delta-E=       -0.000000000857 Rises=F Damp=F
 DIIS: error= 7.28D-06 at cycle   2 NSaved=   2.
 NSaved= 2 IEnMin= 2 EnMin= -26.4801880504550     IErMin= 2 ErrMin= 7.28D-06
 ErrMax= 7.28D-06  0.00D+00 EMaxC= 1.00D-01 BMatC= 1.31D-09 BMatP= 1.89D-09
 IDIUse=1 WtCom= 1.00D+00 WtEn= 0.00D+00
 Coeff-Com:  0.454D+00 0.546D+00
 Coeff:      0.454D+00 0.546D+00
 Gap=     0.170 Goal=   None    Shift=    0.000
 RMSDP=1.58D-06 MaxDP=1.63D-05 DE=-8.57D-10 OVMax= 1.89D-05

 Cycle   7  Pass 1  IDiag  1:
 RMSU=  1.48D-07    CP:  1.00D+00  5.36D-01
 E= -26.4801880524231     Delta-E=       -0.000000001968 Rises=F Damp=F
 DIIS: error= 1.62D-07 at cycle   3 NSaved=   3.
 NSaved= 3 IEnMin= 3 EnMin= -26.4801880524231     IErMin= 3 ErrMin= 1.62D-07
 ErrMax= 1.62D-07  0.00D+00 EMaxC= 1.00D-01 BMatC= 3.57D-13 BMatP= 1.31D-09
 IDIUse=1 WtCom= 1.00D+00 WtEn= 0.00D+00
 Coeff-Com:  0.754D-01 0.932D-01 0.831D+00
 Coeff:      0.754D-01 0.932D-01 0.831D+00
 Gap=     0.170 Goal=   None    Shift=    0.000
 RMSDP=2.92D-08 MaxDP=1.97D-07 DE=-1.97D-09 OVMax= 6.60D-07

 Cycle   8  Pass 1  IDiag  1:
 RMSU=  2.35D-08    CP:  1.00D+00  5.36D-01  8.87D-01
 E= -26.4801880524236     Delta-E=       -0.000000000001 Rises=F Damp=F
 DIIS: error= 5.32D-08 at cycle   4 NSaved=   4.
 NSaved= 4 IEnMin= 4 EnMin= -26.4801880524236     IErMin= 4 ErrMin= 5.32D-08
 ErrMax= 5.32D-08  0.00D+00 EMaxC= 1.00D-01 BMatC= 5.41D-14 BMatP= 3.57D-13
 IDIUse=1 WtCom= 1.00D+00 WtEn= 0.00D+00
 Coeff-Com:  0.221D-02 0.311D-02 0.281D+00 0.714D+00
 Coeff:      0.221D-02 0.311D-02 0.281D+00 0.714D+00
 Gap=     0.170 Goal=   None    Shift=    0.000
 RMSDP=8.43D-09 MaxDP=4.58D-08 DE=-5.61D-13 OVMax= 1.73D-07

 SCF Done:  E(RB-P86) =  -26.4801880524     A.U. after    8 cycles
            NFock=  8  Conv=0.84D-08     -V/T= 1.9919
 KE= 2.669619615008D+01 PE=-7.776768581287D+01 EE= 1.602615736599D+01
 Leave Link  502 at Mon Jan 22 21:17:24 2018, MaxMem=   536870912 cpu:         3.9
 (Enter /home/chemsoft/gaussian/g09e01/g09/l508.exe)
 QCSCF skips out because SCF is already converged.
 Leave Link  508 at Mon Jan 22 21:17:24 2018, MaxMem=   536870912 cpu:         0.0
 (Enter /home/chemsoft/gaussian/g09e01/g09/l701.exe)
 Compute integral first derivatives.
 ... and contract with generalized density number  0.
   6 Symmetry operations used in ECPInt.
 ECPInt:  NShTT=     120 NPrTT=     400 LenC2=     121 LenP2D=     394.
 LDataN:  DoStor=T MaxTD1= 5 Len=  102
 Leave Link  701 at Mon Jan 22 21:17:25 2018, MaxMem=   536870912 cpu:         0.2
 (Enter /home/chemsoft/gaussian/g09e01/g09/l702.exe)
 L702 exits ... SP integral derivatives will be done elsewhere.
 Leave Link  702 at Mon Jan 22 21:17:25 2018, MaxMem=   536870912 cpu:         0.1
 (Enter /home/chemsoft/gaussian/g09e01/g09/l703.exe)
 Compute integral first derivatives, UseDBF=T ICtDFT=           0.
 Integral derivatives from FoFJK, PRISM(SPDF).
 Calling FoFJK, ICntrl=      2527 FMM=F ISym2X=1 I1Cent= 4 IOpClX= 0 NMat=1 NMatS=1 NMatT=0.
 FoFJK:  IHMeth= 1 ICntrl=    2527 DoSepK=F KAlg= 0 I1Cent=   4 FoldK=F
 IRaf=         0 NMat=   1 IRICut=       1 DoRegI=T DoRafI=F ISym2E= 1.
 FoFCou: FMM=F IPFlag=           0 FMFlag=      100000 FMFlg1=         800
         NFxFlg=           0 DoJE=F BraDBF=F KetDBF=T FulRan=T
         wScrn=  0.000000 ICntrl=    2527 IOpCl=  0 I1Cent=           4 NGrid=           0
         NMat0=    1 NMatS0=      1 NMatT0=    0 NMatD0=    1 NMtDS0=    0 NMtDT0=    0
 Petite list used in FoFCou.
 Leave Link  703 at Mon Jan 22 21:17:25 2018, MaxMem=   536870912 cpu:         0.7
 (Enter /home/chemsoft/gaussian/g09e01/g09/l716.exe)
 Dipole        = 0.00000000D+00 2.22044605D-16 3.65844887D-01
 ***** Axes restored to original set *****
 -------------------------------------------------------------------
 Center     Atomic                   Forces (Hartrees/Bohr)
 Number     Number              X              Y              Z
 -------------------------------------------------------------------
      1        5          -0.000000000   -0.000000000   -0.020261038
      2        1          -0.125944039   -0.000000000    0.006753679
      3        1           0.062972019    0.109070737    0.006753679
      4        1           0.062972019   -0.109070737    0.006753679
 -------------------------------------------------------------------
 Cartesian Forces:  Max     0.125944039 RMS     0.063333146
 Leave Link  716 at Mon Jan 22 21:17:26 2018, MaxMem=   536870912 cpu:         0.1
 (Enter /home/chemsoft/gaussian/g09e01/g09/l103.exe)

 GradGradGradGradGradGradGradGradGradGradGradGradGradGradGradGradGradGrad
 Berny optimization.
 Using GEDIIS/GDIIS optimizer.
 FormGI is forming the generalized inverse of G from B-inverse, IUseBI=4.
 Internal  Forces:  Max     0.119675868 RMS     0.084779990
 Search for a local minimum.
 Step number   2 out of a maximum of  100
 All quantities printed in internal units (Hartrees-Bohrs-Radians)
 RMS Force = .84780D-01 SwitMx=.10000D-02 MixMth= 1
 Mixed Optimization -- RFO/linear search
 Update second derivatives using D2CorX and points    1    2
 DE= -2.42D-02 DEPred=-2.46D-02 R= 9.84D-01
 TightC=F SS=  1.41D+00  RLast= 1.10D-01 DXNew= 1.6818D-01 3.2920D-01
 Trust test= 9.84D-01 RLast= 1.10D-01 DXMaxT set to 1.68D-01
 The second derivative matrix:
                          R1        R2        R3        A1        A2
           R1           0.48090
           R2           0.03426   0.48090
           R3           0.03426   0.03426   0.48090
           A1          -0.00902  -0.00902  -0.00902   0.15580
           A2           0.00997   0.00997   0.00997  -0.00182   0.16280
           A3           0.00997   0.00997   0.00997  -0.00182   0.00280
           D1          -0.00115  -0.00115  -0.00115   0.00053  -0.00036
                          A3        D1
           A3           0.16280
           D1          -0.00036   0.01720
 ITU=  1  0
 Use linear search instead of GDIIS.
 Linear search step of   0.185 exceeds DXMaxT=   0.168 but not scaled.
 Quartic linear search produced a step of  2.00000.
 Iteration  1 RMS(Cart)=  0.08216942 RMS(Int)=  0.00467928
 Iteration  2 RMS(Cart)=  0.00174006 RMS(Int)=  0.00397501
 Iteration  3 RMS(Cart)=  0.00001813 RMS(Int)=  0.00397496
 Iteration  4 RMS(Cart)=  0.00000017 RMS(Int)=  0.00397496
 ITry= 1 IFail=0 DXMaxC= 1.20D-01 DCOld= 1.00D+10 DXMaxT= 1.68D-01 DXLimC= 3.00D+00 Rises=F
 ClnCor:  largest displacement from symmetrization is 1.74D-03 for atom     4.
 Variable       Old X    -DE/DX   Delta X   Delta X   Delta X     New X
                                 (Linear)    (Quad)   (Total)
    R1        1.96859   0.11968   0.08982   0.00000   0.08932   2.05791
    R2        1.96859   0.11968   0.08982   0.00000   0.08932   2.05791
    R3        1.96859   0.11968   0.08982   0.00000   0.08932   2.05791
    A1        1.87447   0.00887   0.05772   0.00000   0.05268   1.92715
    A2        1.87447   0.04575   0.05772   0.00000   0.05268   1.92715
    A3        1.87447   0.04575   0.05772   0.00000   0.05268   1.92715
    D1       -2.01152  -0.05551  -0.11818   0.00000  -0.12470  -2.13622
         Item               Value     Threshold  Converged?
 Maximum Force            0.119676     0.000002     NO 
 RMS     Force            0.084780     0.000001     NO 
 Maximum Displacement     0.119513     0.000006     NO 
 RMS     Displacement     0.081285     0.000004     NO 
 Predicted change in Energy=-3.671094D-02
 Lowest energy point so far.  Saving SCF results.
 GradGradGradGradGradGradGradGradGradGradGradGradGradGradGradGradGradGrad

 Leave Link  103 at Mon Jan 22 21:17:26 2018, MaxMem=   536870912 cpu:         0.0
 (Enter /home/chemsoft/gaussian/g09e01/g09/l202.exe)
                          Input orientation:                          
 ---------------------------------------------------------------------
 Center     Atomic      Atomic             Coordinates (Angstroms)
 Number     Number       Type             X           Y           Z
 ---------------------------------------------------------------------
      1          5           0       -0.000000    0.000000   -0.031365
      2          1           0       -1.032680   -0.000000    0.314309
      3          1           0        0.516340    0.894327    0.314309
      4          1           0        0.516340   -0.894327    0.314309
 ---------------------------------------------------------------------
                    Distance matrix (angstroms):
                    1          2          3          4
     1  B    0.000000
     2  H    1.088999   0.000000
     3  H    1.088999   1.788654   0.000000
     4  H    1.088999   1.788654   1.788654   0.000000
 Stoichiometry    BH3
 Framework group  C3V[C3(B),3SGV(H)]
 Deg. of freedom     2
 Full point group                 C3V     NOp   6
 RotChk:  IX=0 Diff= 3.14D-16
 Largest Abelian subgroup         CS      NOp   2
 Largest concise Abelian subgroup CS      NOp   2
                         Standard orientation:                         
 ---------------------------------------------------------------------
 Center     Atomic      Atomic             Coordinates (Angstroms)
 Number     Number       Type             X           Y           Z
 ---------------------------------------------------------------------
      1          5           0        0.000000    0.000000    0.129628
      2          1           0        0.000000    1.032680   -0.216046
      3          1           0       -0.894327   -0.516340   -0.216046
      4          1           0        0.894327   -0.516340   -0.216046
 ---------------------------------------------------------------------
 Rotational constants (GHZ):    266.6069238    266.6069238    156.7397859
 Leave Link  202 at Mon Jan 22 21:17:26 2018, MaxMem=   536870912 cpu:         0.0
 (Enter /home/chemsoft/gaussian/g09e01/g09/l301.exe)
 Standard basis: def2SVP (5D, 7F)
 Ernie: Thresh=  0.10000D-02 Tol=  0.10000D-05 Strict=F.
 There are    20 symmetry adapted cartesian basis functions of A'  symmetry.
 There are    10 symmetry adapted cartesian basis functions of A"  symmetry.
 There are    19 symmetry adapted basis functions of A'  symmetry.
 There are    10 symmetry adapted basis functions of A"  symmetry.
    29 basis functions,    46 primitive gaussians,    30 cartesian basis functions
     4 alpha electrons        4 beta electrons
       nuclear repulsion energy         8.1765062812 Hartrees.
 IExCor=  404 DFT=T Ex=B Corr=P86 ExCW=0 ScaHFX=  0.000000
 ScaDFX=  1.000000  1.000000  1.000000  1.000000 ScalE2=  1.000000  1.000000
 IRadAn=      5 IRanWt=     -1 IRanGd=            0 ICorTp=0 IEmpDi=  4
 NAtoms=    4 NActive=    4 NUniq=    2 SFac= 4.00D+00 NAtFMM=   60 NAOKFM=F Big=F
 Integral buffers will be    131072 words long.
 Raffenetti 2 integral format.
 Two-electron integral symmetry is turned on.
 Standard density basis: W06 (5D, 7F)
    82 Density fitting functions
[...]
 Rotational constants (GHZ):    226.7750654    226.7750654    113.3875327
 Leave Link  202 at Mon Jan 22 21:18:03 2018, MaxMem=   536870912 cpu:         0.0
 (Enter /home/chemsoft/gaussian/g09e01/g09/l601.exe)
 Copying SCF densities to generalized density rwf, IOpCl= 0 IROHF=0.

 **********************************************************************

            Population analysis using the SCF density.

 **********************************************************************

 Orbital symmetries:
       Occupied  (?A) (?A) (?B) (?B)
       Virtual   (A1) (?B) (?B) (?A) (?A) (?B) (?B) (A1) (?B) (?B)
                 (?A) (?C) (?C) (?B) (?B) (?A) (?A) (A1) (?C) (?C)
                 (?B) (?B) (?A) (?B) (?B)
 Unable to determine electronic state:  an orbital has unidentified symmetry.
 Alpha  occ. eigenvalues --   -6.55993  -0.45771  -0.31053  -0.31053
 Alpha virt. eigenvalues --   -0.11073   0.11940   0.11940   0.12269   0.18305
 Alpha virt. eigenvalues --    0.23319   0.23319   0.29826   0.61091   0.61091
 Alpha virt. eigenvalues --    0.61946   0.86772   0.86772   1.22754   1.22754
 Alpha virt. eigenvalues --    1.24350   1.36401   1.57131   1.77013   1.77013
 Alpha virt. eigenvalues --    1.97259   1.97259   2.36216   2.50498   2.50498
     Molecular Orbital Coefficients:
                           1         2         3         4         5
                           O         O         O         O      (A1)--V
     Eigenvalues --    -6.55993  -0.45771  -0.31053  -0.31053  -0.11073
   1 1   B  1S          0.98924   0.24230   0.00000   0.00000   0.00000
   2        2S         -0.04233   0.48592   0.00000  -0.00000   0.00000
   3        3S          0.02283   0.16302   0.00000   0.00000   0.00000
   4        4PX         0.00000   0.00000   0.42383   0.00000   0.00000
   5        4PY         0.00000   0.00000   0.00000   0.42383   0.00000
   6        4PZ         0.00000  -0.00000   0.00000  -0.00000   0.58310
   7        5PX         0.00000   0.00000  -0.13254   0.00000   0.00000
   8        5PY        -0.00000   0.00000   0.00000  -0.13254  -0.00000
   9        5PZ         0.00000   0.00000   0.00000   0.00000  -0.53738
  10        6D 0        0.00244  -0.00254   0.00000  -0.00000   0.00000
  11        6D+1        0.00000   0.00000  -0.00000   0.00000   0.00000
  12        6D-1       -0.00000   0.00000   0.00000  -0.00000   0.00000
  13        6D+2       -0.00000   0.00000   0.00000   0.01789   0.00000
  14        6D-2        0.00000   0.00000   0.01789   0.00000   0.00000
  15 2   H  1S          0.00421   0.20707   0.00000  -0.36821  -0.00000
  16        2S         -0.00432   0.05140   0.00000  -0.17642  -0.00000
  17        3PX         0.00000   0.00000  -0.00813   0.00000   0.00000
  18        3PY        -0.00062  -0.01906   0.00000   0.01016   0.00000
  19        3PZ        -0.00000  -0.00000   0.00000   0.00000  -0.02171
  20 3   H  1S          0.00421   0.20707   0.31888   0.18411  -0.00000
  21        2S         -0.00432   0.05140   0.15278   0.08821  -0.00000
  22        3PX         0.00053   0.01650   0.00559   0.00792  -0.00000
  23        3PY         0.00031   0.00953   0.00792  -0.00356  -0.00000
  24        3PZ        -0.00000  -0.00000  -0.00000  -0.00000  -0.02171
  25 4   H  1S          0.00421   0.20707  -0.31888   0.18411  -0.00000
  26        2S         -0.00432   0.05140  -0.15278   0.08821  -0.00000
  27        3PX        -0.00053  -0.01650   0.00559  -0.00792   0.00000
  28        3PY         0.00031   0.00953  -0.00792  -0.00356  -0.00000
  29        3PZ        -0.00000  -0.00000   0.00000  -0.00000  -0.02171
                           6         7         8         9        10
                           V         V         V         V         V
     Eigenvalues --     0.11940   0.11940   0.12269   0.18305   0.23319
   1 1   B  1S          0.00000   0.00000   0.22275  -0.16925   0.00000
   2        2S          0.00000   0.00000   0.92538  -1.25091   0.00000
   3        3S          0.00000   0.00000   2.61565   3.52688   0.00000
   4        4PX         0.00000  -0.33871   0.00000   0.00000   0.78816
   5        4PY         0.33871   0.00000  -0.00000  -0.00000   0.00000
   6        4PZ         0.00000   0.00000  -0.00000  -0.00000   0.00000
   7        5PX         0.00000   2.07885   0.00000   0.00000   1.09475
   8        5PY        -2.07885   0.00000   0.00000  -0.00000   0.00000
   9        5PZ         0.00000   0.00000   0.00000   0.00000   0.00000
  10        6D 0        0.00000   0.00000   0.03721   0.04237   0.00000
  11        6D+1        0.00000  -0.00000   0.00000   0.00000  -0.00000
  12        6D-1        0.00000   0.00000  -0.00000  -0.00000   0.00000
  13        6D+2       -0.05523   0.00000   0.00000  -0.00000   0.00000
  14        6D-2        0.00000   0.05523   0.00000   0.00000   0.01452
  15 2   H  1S          0.16328   0.00000  -0.11760  -0.18044   0.00000
  16        2S          2.22300   0.00000  -1.44818  -0.85008   0.00000
  17        3PX         0.00000   0.03409   0.00000   0.00000   0.00243
  18        3PY         0.01272   0.00000  -0.01760   0.01000   0.00000
  19        3PZ         0.00000   0.00000   0.00000   0.00000   0.00000
  20 3   H  1S         -0.08164   0.14141  -0.11760  -0.18044   0.22781
  21        2S         -1.11150   1.92518  -1.44818  -0.85008  -0.10331
  22        3PX         0.02027  -0.00102   0.01525  -0.00866   0.03054
  23        3PY        -0.02239  -0.02027   0.00880  -0.00500   0.01623
  24        3PZ        -0.00000   0.00000   0.00000   0.00000  -0.00000
  25 4   H  1S         -0.08164  -0.14141  -0.11760  -0.18044  -0.22781
  26        2S         -1.11150  -1.92518  -1.44818  -0.85008   0.10331
  27        3PX        -0.02027  -0.00102  -0.01525   0.00866   0.03054
  28        3PY        -0.02239   0.02027   0.00880  -0.00500  -0.01623
  29        3PZ        -0.00000  -0.00000   0.00000   0.00000   0.00000
                          11        12        13        14        15
                           V      (A1)--V      V         V         V
     Eigenvalues --     0.23319   0.29826   0.61091   0.61091   0.61946
   1 1   B  1S         -0.00000   0.00000   0.00000   0.00000  -0.17153
   2        2S         -0.00000   0.00000   0.00000   0.00000  -0.76021
   3        3S          0.00000  -0.00000  -0.00000   0.00000   3.89373
   4        4PX         0.00000   0.00000   0.00000   0.62859   0.00000
   5        4PY         0.78816  -0.00000  -0.62859   0.00000  -0.00000
   6        4PZ         0.00000   1.02712   0.00000   0.00000   0.00000
   7        5PX         0.00000   0.00000   0.00000   1.71706   0.00000
   8        5PY         1.09475   0.00000  -1.71706   0.00000  -0.00000
   9        5PZ        -0.00000   1.06642  -0.00000   0.00000   0.00000
  10        6D 0        0.00000   0.00000   0.00000   0.00000  -0.26014
  11        6D+1        0.00000   0.00000   0.00000   0.00000   0.00000
  12        6D-1       -0.00000   0.00000  -0.00000   0.00000   0.00000
  13        6D+2        0.01452   0.00000   0.35287   0.00000   0.00000
  14        6D-2        0.00000   0.00000   0.00000  -0.35287   0.00000
  15 2   H  1S         -0.26305  -0.00000  -0.89386   0.00000   0.73614
  16        2S          0.11929   0.00000   2.33974   0.00000  -1.89508
  17        3PX         0.00000   0.00000   0.00000  -0.05398   0.00000
  18        3PY         0.03991   0.00000  -0.11615   0.00000   0.07370
  19        3PZ         0.00000  -0.01701  -0.00000   0.00000  -0.00000
  20 3   H  1S          0.13152  -0.00000   0.44693  -0.77411   0.73614
  21        2S         -0.05965   0.00000  -1.16987   2.02627  -1.89508
  22        3PX         0.01623  -0.00000  -0.07367   0.07361  -0.06383
  23        3PY         0.01180  -0.00000   0.01145   0.07367  -0.03685
  24        3PZ        -0.00000  -0.01701   0.00000  -0.00000  -0.00000
  25 4   H  1S          0.13152  -0.00000   0.44693   0.77411   0.73614
  26        2S         -0.05965   0.00000  -1.16987  -2.02627  -1.89508
  27        3PX        -0.01623   0.00000   0.07367   0.07361   0.06383
  28        3PY         0.01180  -0.00000   0.01145  -0.07367  -0.03685
  29        3PZ        -0.00000  -0.01701   0.00000   0.00000  -0.00000
                          16        17        18        19        20
                           V         V         V         V         V
     Eigenvalues --     0.86772   0.86772   1.22754   1.22754   1.24350
   1 1   B  1S          0.00000  -0.00000   0.00000  -0.00000  -0.05382
   2        2S          0.00000  -0.00000   0.00000  -0.00000  -0.10136
   3        3S          0.00000  -0.00000   0.00000  -0.00000  -0.28142
   4        4PX         0.00000   0.00000   0.29722   0.00000   0.00000
   5        4PY         0.00000   0.00000   0.00000   0.29722  -0.00000
   6        4PZ         0.00000   0.00000   0.00000  -0.00000   0.00000
   7        5PX        -0.00000   0.00000  -0.48375   0.00000   0.00000
   8        5PY         0.00000  -0.00000   0.00000  -0.48375   0.00000
   9        5PZ         0.00000  -0.00000   0.00000   0.00000  -0.00000
  10        6D 0        0.00000   0.00000   0.00000   0.00000   1.03861
  11        6D+1        0.78289   0.00000  -0.00000   0.00000   0.00000
  12        6D-1        0.00000   0.78289   0.00000  -0.00000   0.00000
  13        6D+2        0.00000   0.00000   0.00000   0.72302  -0.00000
  14        6D-2        0.00000   0.00000   0.72302   0.00000   0.00000
  15 2   H  1S          0.00000   0.00000   0.00000   0.73826   0.47194
  16        2S          0.00000   0.00000   0.00000  -0.04489  -0.08382
  17        3PX         0.00000   0.00000   0.38036   0.00000   0.00000
  18        3PY         0.00000  -0.00000   0.00000   0.17938   0.09003
  19        3PZ         0.00000   0.29560   0.00000  -0.00000   0.00000
  20 3   H  1S         -0.00000  -0.00000  -0.63935  -0.36913   0.47194
  21        2S         -0.00000  -0.00000   0.03887   0.02244  -0.08382
  22        3PX         0.00000  -0.00000   0.22963  -0.08703  -0.07797
  23        3PY        -0.00000   0.00000  -0.08703   0.33012  -0.04502
  24        3PZ        -0.25600  -0.14780   0.00000   0.00000   0.00000
  25 4   H  1S          0.00000  -0.00000   0.63935  -0.36913   0.47194
  26        2S          0.00000  -0.00000  -0.03887   0.02244  -0.08382
  27        3PX         0.00000   0.00000   0.22963   0.08703   0.07797
  28        3PY         0.00000   0.00000   0.08703   0.33012  -0.04502
  29        3PZ         0.25600  -0.14780  -0.00000   0.00000   0.00000
                          21        22        23        24        25
                           V      (A1)--V      V         V         V
     Eigenvalues --     1.36401   1.57131   1.77013   1.77013   1.97259
   1 1   B  1S          0.00000   0.00000   0.00000   0.00000   0.00000
   2        2S          0.00000   0.00000   0.00000   0.00000   0.00000
   3        3S          0.00000  -0.00000  -0.00000   0.00000   0.00000
   4        4PX        -0.00000   0.00000   0.00000   0.00000   0.47118
   5        4PY         0.00000  -0.00000  -0.00000   0.00000   0.00000
   6        4PZ         0.00000   0.29830   0.00000   0.00000   0.00000
   7        5PX        -0.00000   0.00000   0.00000  -0.00000  -0.54050
   8        5PY         0.00000  -0.00000   0.00000   0.00000   0.00000
   9        5PZ         0.00000  -0.21368  -0.00000   0.00000   0.00000
  10        6D 0        0.00000  -0.00000   0.00000   0.00000   0.00000
  11        6D+1        0.00000   0.00000   0.00000   0.80283  -0.00000
  12        6D-1        0.00000   0.00000  -0.80283   0.00000   0.00000
  13        6D+2        0.00000  -0.00000   0.00000   0.00000   0.00000
  14        6D-2       -0.00000   0.00000   0.00000  -0.00000  -0.55791
  15 2   H  1S          0.00000  -0.00000   0.00000   0.00000   0.00000
  16        2S          0.00000   0.00000  -0.00000   0.00000   0.00000
  17        3PX         0.58120   0.00000   0.00000   0.00000   0.82479
  18        3PY         0.00000  -0.00000   0.00000   0.00000   0.00000
  19        3PZ         0.00000   0.62366   0.86743   0.00000   0.00000
  20 3   H  1S          0.00000  -0.00000  -0.00000   0.00000   0.12640
  21        2S         -0.00000   0.00000   0.00000  -0.00000  -0.65428
  22        3PX        -0.29060   0.00000   0.00000   0.00000  -0.11582
  23        3PY         0.50333   0.00000  -0.00000  -0.00000  -0.54306
  24        3PZ        -0.00000   0.62366  -0.43371   0.75121  -0.00000
  25 4   H  1S         -0.00000  -0.00000  -0.00000  -0.00000  -0.12640
  26        2S          0.00000   0.00000   0.00000   0.00000   0.65428
  27        3PX        -0.29060  -0.00000  -0.00000   0.00000  -0.11582
  28        3PY        -0.50333   0.00000  -0.00000   0.00000   0.54306
  29        3PZ         0.00000   0.62366  -0.43371  -0.75121   0.00000
                          26        27        28        29
                           V         V         V         V
     Eigenvalues --     1.97259   2.36216   2.50498   2.50498
   1 1   B  1S          0.00000   0.25691  -0.00000   0.00000
   2        2S          0.00000   1.79252  -0.00000   0.00000
   3        3S         -0.00000   0.74017   0.00000   0.00000
   4        4PX         0.00000   0.00000   0.00000   1.40146
   5        4PY         0.47118  -0.00000   1.40146   0.00000
   6        4PZ        -0.00000  -0.00000   0.00000   0.00000
   7        5PX         0.00000   0.00000   0.00000  -0.17295
   8        5PY        -0.54050   0.00000  -0.17295   0.00000
   9        5PZ         0.00000   0.00000  -0.00000   0.00000
  10        6D 0       -0.00000  -0.80112  -0.00000   0.00000
  11        6D+1        0.00000   0.00000   0.00000  -0.00000
  12        6D-1       -0.00000   0.00000  -0.00000   0.00000
  13        6D+2       -0.55791   0.00000   1.39389   0.00000
  14        6D-2        0.00000   0.00000   0.00000   1.39389
  15 2   H  1S         -0.14595  -0.54452   1.12035   0.00000
  16        2S          0.75549  -0.52298   0.31113   0.00000
  17        3PX         0.00000   0.00000   0.00000  -0.38307
  18        3PY        -0.42936   0.87621  -1.22454   0.00000
  19        3PZ         0.00000   0.00000  -0.00000   0.00000
  20 3   H  1S          0.07298  -0.54452  -0.56017  -0.97025
  21        2S         -0.37775  -0.52298  -0.15556  -0.26945
  22        3PX        -0.54306  -0.75882  -0.36437  -1.01417
  23        3PY         0.51125  -0.43811  -0.59344  -0.36437
  24        3PZ        -0.00000   0.00000   0.00000   0.00000
  25 4   H  1S          0.07298  -0.54452  -0.56017   0.97025
  26        2S         -0.37775  -0.52298  -0.15556   0.26945
  27        3PX         0.54306   0.75882   0.36437  -1.01417
  28        3PY         0.51125  -0.43811  -0.59344   0.36437
  29        3PZ        -0.00000   0.00000   0.00000  -0.00000
          Condensed to atoms (all electrons):
               1          2          3          4
     1  B    3.761300   0.413275   0.413275   0.413275
     2  H    0.413275   0.632626  -0.023138  -0.023138
     3  H    0.413275  -0.023138   0.632626  -0.023138
     4  H    0.413275  -0.023138  -0.023138   0.632626
 Mulliken charges:
               1
     1  B   -0.001125
     2  H    0.000375
     3  H    0.000375
     4  H    0.000375
 Sum of Mulliken charges =   0.00000
 Mulliken charges with hydrogens summed into heavy atoms:
               1
     1  B    0.000000
 Electronic spatial extent (au):  <R**2>=             34.8146
 Charge=              0.0000 electrons
 Dipole moment (field-independent basis, Debye):
    X=              0.0000    Y=              0.0000    Z=             -0.0000  Tot=              0.0000
 Quadrupole moment (field-independent basis, Debye-Ang):
   XX=             -9.1813   YY=             -9.1813   ZZ=             -7.2220
   XY=             -0.0000   XZ=              0.0000   YZ=             -0.0000
 Traceless Quadrupole moment (field-independent basis, Debye-Ang):
   XX=             -0.6531   YY=             -0.6531   ZZ=              1.3062
   XY=             -0.0000   XZ=              0.0000   YZ=             -0.0000
 Octapole moment (field-independent basis, Debye-Ang**2):
  XXX=             -0.0000  YYY=              0.2942  ZZZ=             -0.0000  XYY=             -0.0000
  XXY=             -0.2942  XXZ=              0.0000  XZZ=             -0.0000  YZZ=              0.0000
  YYZ=              0.0000  XYZ=              0.0000
 Hexadecapole moment (field-independent basis, Debye-Ang**3):
 XXXX=            -23.9147 YYYY=            -23.9147 ZZZZ=             -7.3741 XXXY=             -0.0000
 XXXZ=              0.0000 YYYX=             -0.0000 YYYZ=              0.0000 ZZZX=             -0.0000
 ZZZY=              0.0000 XXYY=             -7.9716 XXZZ=             -5.5168 YYZZ=             -5.5168
 XXYZ=             -0.0000 YYXZ=             -0.0000 ZZXY=             -0.0000
 N-N= 7.292518831811D+00 E-N=-7.489686109370D+01  KE= 2.611564486546D+01
 Symmetry A'   KE= 2.471388037831D+01
 Symmetry A"   KE= 1.401764487143D+00
 Orbital energies and kinetic energies (alpha):
                                 1                 2
   1         O                -6.559933         10.720423
   2         O                -0.457711          0.935635
   3         O                -0.310534          0.700882
   4         O                -0.310534          0.700882
   5         (A1)--V          -0.110735          0.661728
   6         V                 0.119404          0.549425
   7         V                 0.119404          0.549425
   8         V                 0.122689          1.021418
   9         V                 0.183055          0.730486
  10         V                 0.233193          0.918560
  11         V                 0.233193          0.918560
  12         (A1)--V           0.298259          1.205934
  13         V                 0.610905          1.640427
  14         V                 0.610905          1.640427
  15         V                 0.619456          1.773990
  16         V                 0.867723          1.631955
  17         V                 0.867723          1.631955
  18         V                 1.227543          2.143179
  19         V                 1.227543          2.143179
  20         V                 1.243503          2.123383
  21         V                 1.364006          2.058397
  22         (A1)--V           1.571314          2.306754
  23         V                 1.770125          2.499196
  24         V                 1.770125          2.499196
  25         V                 1.972590          2.800183
  26         V                 1.972590          2.800183
  27         V                 2.362160          3.740329
  28         V                 2.504979          3.935993
  29         V                 2.504979          3.935993
 Total kinetic energy from orbitals= 2.611564486546D+01
 No NMR shielding tensors so no spin-rotation constants.
 Leave Link  601 at Mon Jan 22 21:18:03 2018, MaxMem=   536870912 cpu:         0.1
 (Enter /home/chemsoft/gaussian/g09e01/g09/l9999.exe)

 Test job not archived.
 1\1\GINC-LENOX07\FOpt\RBP86\def2SVP/W06\B1H3\MARTIN\22-Jan-2018\0\\#P 
 BP86/def2SVP/W06 DenFit opt(MaxCycle=100 MaxStep=10 VeryTight NoEigenT
 est) scf(xqc MaxConventionalCycle = 500) int(ultrafinegrid) gfinput gf
 oldprint iop(6/7=3) symmetry(loose)\\Borane DF-BP86/def2-SVP\\0,1\B,-0
 .0000000001,0.,0.2282570595\H,-1.2141511247,-0.0000000003,0.228256565\
 H,0.6070755618,1.0514857181,0.228256565\H,0.6070755624,-1.0514857177,0
 .228256565\\Version=ES64L-G09RevE.01\HF=-26.5738221\RMSD=2.542e-09\RMS
 F=1.211e-07\Dipole=0.,0.,0.0000004\Quadrupole=-0.4855619,-0.4855619,0.
 9711238,0.,0.,0.\PG=C03V [C3(B1),3SGV(H1)]\\@


 IT IS NOT EASY TO DESCRIBE
     THE SEA WITH THE MOUTH

                   -- KOKYU
 Job cpu time:       0 days  0 hours  0 minutes 52.1 seconds.
 File lengths (MBytes):  RWF=      5 Int=      0 D2E=      0 Chk=      1 Scr=      1
 Normal termination of Gaussian 09 at Mon Jan 22 21:18:04 2018.
