 Entering Gaussian System, Link 0=g09
 Input=borane.df-b97d3svp.com
 Output=borane.df-b97d3svp.log
 Initial command:
 /home/chemsoft/gaussian/g09e01/g09/l1.exe "/scr/martin/g09job.inter1516773611/Gau-8758.inp" -scrdir="/scr/martin/g09job.inter1516773611/"
 Entering Link 1 = /home/chemsoft/gaussian/g09e01/g09/l1.exe PID=      8759.
  
 Copyright (c) 1988,1990,1992,1993,1995,1998,2003,2009,2015,
            Gaussian, Inc.  All Rights Reserved.
  
 This is part of the Gaussian(R) 09 program.  It is based on
 the Gaussian(R) 03 system (copyright 2003, Gaussian, Inc.),
 the Gaussian(R) 98 system (copyright 1998, Gaussian, Inc.),
 the Gaussian(R) 94 system (copyright 1995, Gaussian, Inc.),
 the Gaussian 92(TM) system (copyright 1992, Gaussian, Inc.),
 the Gaussian 90(TM) system (copyright 1990, Gaussian, Inc.),
 the Gaussian 88(TM) system (copyright 1988, Gaussian, Inc.),
 the Gaussian 86(TM) system (copyright 1986, Carnegie Mellon
 University), and the Gaussian 82(TM) system (copyright 1983,
 Carnegie Mellon University). Gaussian is a federally registered
 trademark of Gaussian, Inc.
  
 This software contains proprietary and confidential information,
 including trade secrets, belonging to Gaussian, Inc.
  
 This software is provided under written license and may be
 used, copied, transmitted, or stored only in accord with that
 written license.
  
 The following legend is applicable only to US Government
 contracts under FAR:
  
                    RESTRICTED RIGHTS LEGEND
  
 Use, reproduction and disclosure by the US Government is
 subject to restrictions as set forth in subparagraphs (a)
 and (c) of the Commercial Computer Software - Restricted
 Rights clause in FAR 52.227-19.
  
 Gaussian, Inc.
 340 Quinnipiac St., Bldg. 40, Wallingford CT 06492
  
  
 ---------------------------------------------------------------
 Warning -- This program may not be used in any manner that
 competes with the business of Gaussian, Inc. or will provide
 assistance to any competitor of Gaussian, Inc.  The licensee
 of this program is prohibited from giving any competitor of
 Gaussian, Inc. access to this program.  By using this program,
 the user acknowledges that Gaussian, Inc. is engaged in the
 business of creating and licensing software in the field of
 computational chemistry and represents and warrants to the
 licensee that it is not a competitor of Gaussian, Inc. and that
 it will not use this program in any manner prohibited above.
 ---------------------------------------------------------------
  

 Cite this work as:
 Gaussian 09, Revision E.01,
 M. J. Frisch, G. W. Trucks, H. B. Schlegel, G. E. Scuseria, 
 M. A. Robb, J. R. Cheeseman, G. Scalmani, V. Barone, B. Mennucci, 
 G. A. Petersson, H. Nakatsuji, M. Caricato, X. Li, H. P. Hratchian, 
 A. F. Izmaylov, J. Bloino, G. Zheng, J. L. Sonnenberg, M. Hada, 
 M. Ehara, K. Toyota, R. Fukuda, J. Hasegawa, M. Ishida, T. Nakajima, 
 Y. Honda, O. Kitao, H. Nakai, T. Vreven, J. A. Montgomery, Jr., 
 J. E. Peralta, F. Ogliaro, M. Bearpark, J. J. Heyd, E. Brothers, 
 K. N. Kudin, V. N. Staroverov, T. Keith, R. Kobayashi, J. Normand, 
 K. Raghavachari, A. Rendell, J. C. Burant, S. S. Iyengar, J. Tomasi, 
 M. Cossi, N. Rega, J. M. Millam, M. Klene, J. E. Knox, J. B. Cross, 
 V. Bakken, C. Adamo, J. Jaramillo, R. Gomperts, R. E. Stratmann, 
 O. Yazyev, A. J. Austin, R. Cammi, C. Pomelli, J. W. Ochterski, 
 R. L. Martin, K. Morokuma, V. G. Zakrzewski, G. A. Voth, 
 P. Salvador, J. J. Dannenberg, S. Dapprich, A. D. Daniels, 
 O. Farkas, J. B. Foresman, J. V. Ortiz, J. Cioslowski, 
 and D. J. Fox, Gaussian, Inc., Wallingford CT, 2013.
 
 ******************************************
 Gaussian 09:  ES64L-G09RevE.01 30-Nov-2015
                24-Jan-2018 
 ******************************************
 %chk=borane.df-b97d3svp.chk
 ----------------------------------------------------------------------
 #P B97d3/def2SVP/W06 DenFit opt(MaxCycle=100 MaxStep=10 VeryTight NoEi
 genTest) scf(xqc MaxConventionalCycle = 500) int(ultrafinegrid) gfinpu
 t gfoldprint iop(6/7=3) symmetry(loose)
 ----------------------------------------------------------------------
 1/6=100,7=1,8=10,11=1,14=-1,18=20,19=15,26=4,38=1/1,3;
 2/9=110,12=2,17=4,18=3,40=1/2;
 3/5=43,7=101,11=2,16=1,24=11,25=1,30=1,71=1,74=-59,75=-5,82=40/1,2,3;
 4//1;
 5/5=2,8=3,13=1,38=5,85=500/2,8;
 6/7=3,8=2,9=2,10=2,28=1/1;
 7//1,2,3,16;
 1/6=100,7=1,8=10,11=1,14=-1,18=20,19=15,26=4/3(2);
 2/9=110/2;
 99//99;
 2/9=110/2;
 3/5=43,7=101,11=2,16=1,25=1,30=1,71=1,74=-59,75=-5,82=40/1,2,3;
 4/5=5,16=3,69=1/1;
 5/5=2,8=3,13=1,38=5,85=500/2,8;
 7//1,2,3,16;
 1/6=100,7=1,8=10,11=1,14=-1,18=20,19=15,26=4/3(-5);
 2/9=110/2;
 6/7=3,8=2,9=2,10=2,19=2,28=1/1;
 99/9=1/99;
 Leave Link    1 at Wed Jan 24 15:00:12 2018, MaxMem=           0 cpu:         0.1
 (Enter /home/chemsoft/gaussian/g09e01/g09/l101.exe)
 -----------------------
 Borane DF-BP86/def2-SVP
 -----------------------
 Symbolic Z-matrix:
 Charge =  0 Multiplicity = 1
 B                     0.        0.       -0.07057 
 H                    -0.93718   0.        0.32685 
 H                     0.46859   0.81162   0.32685 
 H                     0.46859  -0.81162   0.32685 
 
 NAtoms=      4 NQM=        4 NQMF=       0 NMMI=      0 NMMIF=      0
                NMic=       0 NMicF=      0.
                    Isotopes and Nuclear Properties:
 (Nuclear quadrupole moments (NQMom) in fm**2, nuclear magnetic moments (NMagM)
  in nuclear magnetons)

  Atom         1           2           3           4
 IAtWgt=          11           1           1           1
 AtmWgt=  11.0093053   1.0078250   1.0078250   1.0078250
 NucSpn=           3           1           1           1
 AtZEff=   0.0000000   0.0000000   0.0000000   0.0000000
 NQMom=    4.0590000   0.0000000   0.0000000   0.0000000
 NMagM=    2.6886370   2.7928460   2.7928460   2.7928460
 AtZNuc=   5.0000000   1.0000000   1.0000000   1.0000000
 Leave Link  101 at Wed Jan 24 15:00:12 2018, MaxMem=   536870912 cpu:         0.3
 (Enter /home/chemsoft/gaussian/g09e01/g09/l103.exe)

 GradGradGradGradGradGradGradGradGradGradGradGradGradGradGradGradGradGrad
 Berny optimization.
 Initialization pass.
                           ----------------------------
                           !    Initial Parameters    !
                           ! (Angstroms and Degrees)  !
 --------------------------                            --------------------------
 ! Name  Definition              Value          Derivative Info.                !
 --------------------------------------------------------------------------------
 ! R1    R(1,2)                  1.018          estimate D2E/DX2                !
 ! R2    R(1,3)                  1.018          estimate D2E/DX2                !
 ! R3    R(1,4)                  1.018          estimate D2E/DX2                !
 ! A1    A(2,1,3)              105.7458         estimate D2E/DX2                !
 ! A2    A(2,1,4)              105.7458         estimate D2E/DX2                !
 ! A3    A(3,1,4)              105.7458         estimate D2E/DX2                !
 ! D1    D(2,1,4,3)           -111.8661         estimate D2E/DX2                !
 --------------------------------------------------------------------------------
 Trust Radius=1.00D-01 FncErr=1.00D-07 GrdErr=1.00D-06
 Number of steps in this run=    100 maximum allowed number of steps=    100.
 GradGradGradGradGradGradGradGradGradGradGradGradGradGradGradGradGradGrad

 Leave Link  103 at Wed Jan 24 15:00:12 2018, MaxMem=   536870912 cpu:         0.0
 (Enter /home/chemsoft/gaussian/g09e01/g09/l202.exe)
                          Input orientation:                          
 ---------------------------------------------------------------------
 Center     Atomic      Atomic             Coordinates (Angstroms)
 Number     Number       Type             X           Y           Z
 ---------------------------------------------------------------------
      1          5           0        0.000000    0.000000   -0.070572
      2          1           0       -0.937180    0.000000    0.326851
      3          1           0        0.468590    0.811621    0.326851
      4          1           0        0.468590   -0.811621    0.326851
 ---------------------------------------------------------------------
                    Distance matrix (angstroms):
                    1          2          3          4
     1  B    0.000000
     2  H    1.017964   0.000000
     3  H    1.017964   1.623243   0.000000
     4  H    1.017964   1.623243   1.623243   0.000000
 Stoichiometry    BH3
 Framework group  C3V[C3(B),3SGV(H)]
 Deg. of freedom     2
 Full point group                 C3V     NOp   6
 Largest Abelian subgroup         CS      NOp   2
 Largest concise Abelian subgroup CS      NOp   2
                         Standard orientation:                         
 ---------------------------------------------------------------------
 Center     Atomic      Atomic             Coordinates (Angstroms)
 Number     Number       Type             X           Y           Z
 ---------------------------------------------------------------------
      1          5           0        0.000000    0.000000    0.149034
      2          1           0        0.000000    0.937180   -0.248389
      3          1           0       -0.811621   -0.468590   -0.248389
      4          1           0        0.811621   -0.468590   -0.248389
 ---------------------------------------------------------------------
 Rotational constants (GHZ):    296.8591756    296.8591756    190.3115482
 Leave Link  202 at Wed Jan 24 15:00:12 2018, MaxMem=   536870912 cpu:         0.0
 (Enter /home/chemsoft/gaussian/g09e01/g09/l301.exe)
 Standard basis: def2SVP (5D, 7F)
 ======================================================================================================
                                       Pseudopotential Parameters
 ======================================================================================================
  Center     Atomic      Valence      Angular      Power
  Number     Number     Electrons     Momentum     of R      Exponent        Coefficient   SO-Coeffient
 ======================================================================================================
    1          5
                                   No pseudopotential on this center.
    2          1
                                   No pseudopotential on this center.
    3          1
                                   No pseudopotential on this center.
    4          1
                                   No pseudopotential on this center.
 ======================================================================================================
 Ernie: Thresh=  0.10000D-02 Tol=  0.10000D-05 Strict=F.
 AO basis set in the form of general basis input (Overlap normalization):
      1 0
 S   5 1.00       0.000000000000
      0.8393183009D+03 -0.5628883598D-02
      0.1262646484D+03 -0.4183279461D-01
      0.2862060076D+02 -0.1841748813D+00
      0.7879372271D+01 -0.4683965503D+00
      0.2408885717D+01 -0.4445793088D+00
 S   1 1.00       0.000000000000
      0.2510510904D+00  0.1000000000D+01
 S   1 1.00       0.000000000000
      0.8364886607D-01  0.1000000000D+01
 P   3 1.00       0.000000000000
      0.6033222362D+01 -0.5403250032D-01
      0.1249915787D+01 -0.3019403439D+00
      0.3387167635D+00 -0.7717079166D+00
 P   1 1.00       0.000000000000
      0.9641563235D-01  0.1000000000D+01
 D   1 1.00       0.000000000000
      0.5000000000D+00  0.1000000000D+01
 ****
      2 0
 S   3 1.00       0.000000000000
      0.1301070100D+02  0.3348548481D-01
      0.1962257200D+01  0.2347218709D+00
      0.4445379600D+00  0.8137702853D+00
 S   1 1.00       0.000000000000
      0.1219496200D+00  0.1000000000D+01
 P   1 1.00       0.000000000000
      0.8000000000D+00  0.1000000000D+01
 ****
      3 0
 S   3 1.00       0.000000000000
      0.1301070100D+02  0.3348548481D-01
      0.1962257200D+01  0.2347218709D+00
      0.4445379600D+00  0.8137702853D+00
 S   1 1.00       0.000000000000
      0.1219496200D+00  0.1000000000D+01
 P   1 1.00       0.000000000000
      0.8000000000D+00  0.1000000000D+01
 ****
      4 0
 S   3 1.00       0.000000000000
      0.1301070100D+02  0.3348548481D-01
      0.1962257200D+01  0.2347218709D+00
      0.4445379600D+00  0.8137702853D+00
 S   1 1.00       0.000000000000
      0.1219496200D+00  0.1000000000D+01
 P   1 1.00       0.000000000000
      0.8000000000D+00  0.1000000000D+01
 ****

 ***********************************************************************************************************************************
 *             ATOMIC CENTER             *        ATOMIC ORBITAL       *                     GAUSSIAN FUNCTIONS                    *
 ***********************************************************************************************************************************
 *                                       * FUNCTION    SHELL    SCALE  *                                                           *
 *    ATOM   X-COORD  Y-COORD  Z-COORD   *  NUMBER     TYPE     FACTOR *  EXPONENT    S-COEF      P-COEF      D-COEF      F-COEF   *
 ***********************************************************************************************************************************
 *     B      0.00000  0.00000  0.28163                                                                                            *
+                                                1   S           1.00                                                               
+                                                                      0.839318D+03-.625572D+000.000000D+000.000000D+000.000000D+00 
 *                                                                     0.126265D+03-.112302D+010.000000D+000.000000D+000.000000D+00*
 *                                                                     0.286206D+02-.162424D+010.000000D+000.000000D+000.000000D+00*
 *                                                                     0.787937D+01-.156997D+010.000000D+000.000000D+000.000000D+00*
 *                                                                     0.240889D+01-.612663D+000.000000D+000.000000D+000.000000D+00*
 *                                               2   S           1.00                                                              *
+                                                                      0.251051D+000.252774D+000.000000D+000.000000D+000.000000D+00 
 *                                               3   S           1.00                                                              *
+                                                                      0.836489D-010.110855D+000.000000D+000.000000D+000.000000D+00 
 *                                           4-  6   P           1.00                                                              *
+                                                                      0.603322D+010.000000D+00-.728252D+000.000000D+000.000000D+00 
 *                                                                     0.124992D+010.000000D+00-.568803D+000.000000D+000.000000D+00*
 *                                                                     0.338717D+000.000000D+00-.284242D+000.000000D+000.000000D+00*
 *                                           7-  9   P           1.00                                                              *
+                                                                      0.964156D-010.000000D+000.765816D-010.000000D+000.000000D+00 
 *                                          10- 14   D           1.00                                                              *
+                                                                      0.500000D+000.000000D+000.000000D+000.489336D+000.000000D+00 
 *---------------------------------------------------------------------------------------------------------------------------------*
 *     H      0.00000  1.77101 -0.46939                                                                                            *
+                                               15   S           1.00                                                               
+                                                                      0.130107D+020.163490D+000.000000D+000.000000D+000.000000D+00 
 *                                                                     0.196226D+010.277352D+000.000000D+000.000000D+000.000000D+00*
 *                                                                     0.444538D+000.315750D+000.000000D+000.000000D+000.000000D+00*
 *                                              16   S           1.00                                                              *
+                                                                      0.121950D+000.147077D+000.000000D+000.000000D+000.000000D+00 
 *                                          17- 19   P           1.00                                                              *
+                                                                      0.800000D+000.000000D+000.107846D+010.000000D+000.000000D+00 
 *---------------------------------------------------------------------------------------------------------------------------------*
 *     H     -1.53374 -0.88551 -0.46939                                                                                            *
+                                               20   S           1.00                                                               
+                                                                      0.130107D+020.163490D+000.000000D+000.000000D+000.000000D+00 
 *                                                                     0.196226D+010.277352D+000.000000D+000.000000D+000.000000D+00*
 *                                                                     0.444538D+000.315750D+000.000000D+000.000000D+000.000000D+00*
 *                                              21   S           1.00                                                              *
+                                                                      0.121950D+000.147077D+000.000000D+000.000000D+000.000000D+00 
 *                                          22- 24   P           1.00                                                              *
+                                                                      0.800000D+000.000000D+000.107846D+010.000000D+000.000000D+00 
 *---------------------------------------------------------------------------------------------------------------------------------*
 *     H      1.53374 -0.88551 -0.46939                                                                                            *
+                                               25   S           1.00                                                               
+                                                                      0.130107D+020.163490D+000.000000D+000.000000D+000.000000D+00 
 *                                                                     0.196226D+010.277352D+000.000000D+000.000000D+000.000000D+00*
 *                                                                     0.444538D+000.315750D+000.000000D+000.000000D+000.000000D+00*
 *                                              26   S           1.00                                                              *
+                                                                      0.121950D+000.147077D+000.000000D+000.000000D+000.000000D+00 
 *                                          27- 29   P           1.00                                                              *
+                                                                      0.800000D+000.000000D+000.107846D+010.000000D+000.000000D+00 
 ***********************************************************************************************************************************
 There are    20 symmetry adapted cartesian basis functions of A'  symmetry.
 There are    10 symmetry adapted cartesian basis functions of A"  symmetry.
 There are    19 symmetry adapted basis functions of A'  symmetry.
 There are    10 symmetry adapted basis functions of A"  symmetry.
    29 basis functions,    46 primitive gaussians,    30 cartesian basis functions
     4 alpha electrons        4 beta electrons
       nuclear repulsion energy         8.7755827418 Hartrees.
 IExCor= 3630 DFT=T Ex+Corr=B97D3 ExCW=0 ScaHFX=  0.000000
 ScaDFX=  1.000000  1.000000  1.000000  1.000000 ScalE2=  1.000000  1.000000
 IRadAn=      5 IRanWt=     -1 IRanGd=            0 ICorTp=0 IEmpDi=141
 NAtoms=    4 NActive=    4 NUniq=    2 SFac= 4.00D+00 NAtFMM=   60 NAOKFM=F Big=F
 Integral buffers will be    131072 words long.
 Raffenetti 2 integral format.
 Two-electron integral symmetry is turned on.
 R6Disp:  Grimme-D3(BJ) Dispersion energy=       -0.0028325784 Hartrees.
 Nuclear repulsion after empirical dispersion term =        8.7727501634 Hartrees.
 Standard density basis: W06 (5D, 7F)
    82 Density fitting functions
 Density basis set in the form of general basis input (Coulomb normalization):
      1 0
 S   7 1.00       0.000000000000
      0.1322201672D+04  0.1533845092D-02
      0.4582370653D+03  0.5602018072D-02
      0.1680023641D+03  0.3186812516D-01
      0.6495776900D+02  0.1195515625D+00
      0.2638718560D+02  0.3174086192D+00
      0.1121086110D+02  0.4163043412D+00
      0.4955446000D+01  0.1476518035D+00
 S   1 1.00       0.000000000000
      0.2265282500D+01 -0.1000000000D+01
 S   1 1.00       0.000000000000
      0.1063808600D+01  0.1000000000D+01
 S   1 1.00       0.000000000000
      0.5095187000D+00  0.1000000000D+01
 S   1 1.00       0.000000000000
      0.2469859000D+00  0.1000000000D+01
 S   1 1.00       0.000000000000
      0.1202089000D+00  0.1000000000D+01
 P   2 1.00       0.000000000000
      0.9356073600D+01 -0.4402070956D+00
      0.3974313100D+01 -0.5918247809D+00
 P   1 1.00       0.000000000000
      0.1664514700D+01  0.1000000000D+01
 P   1 1.00       0.000000000000
      0.6913035000D+00 -0.1000000000D+01
 P   1 1.00       0.000000000000
      0.2863135000D+00  0.1000000000D+01
 D   2 1.00       0.000000000000
      0.2112031300D+01  0.2593317607D+00
      0.7780769000D+00  0.7591984630D+00
 D   1 1.00       0.000000000000
      0.3277101000D+00  0.1000000000D+01
 D   1 1.00       0.000000000000
      0.1449465000D+00  0.1000000000D+01
 F   2 1.00       0.000000000000
      0.1058271800D+01  0.6309763349D+00
      0.4010000000D+00  0.4234377755D+00
 G   1 1.00       0.000000000000
      0.6514300000D+00 -0.1000000000D+01
 ****
      2 0
 S   3 1.00       0.000000000000
      0.1567529270D+02  0.3261158972D-01
      0.3606357800D+01  0.2298046837D+00
      0.1208001600D+01  0.7572083240D+00
 S   1 1.00       0.000000000000
      0.4726794000D+00  0.1000000000D+01
 S   1 1.00       0.000000000000
      0.2018100000D+00  0.1000000000D+01
 P   2 1.00       0.000000000000
      0.2028136500D+01  0.3618361986D+00
      0.5358730000D+00  0.7039303088D+00
 D   1 1.00       0.000000000000
      0.2216512400D+01  0.1000000000D+01
 ****
      3 0
 S   3 1.00       0.000000000000
      0.1567529270D+02  0.3261158972D-01
      0.3606357800D+01  0.2298046837D+00
      0.1208001600D+01  0.7572083240D+00
 S   1 1.00       0.000000000000
      0.4726794000D+00  0.1000000000D+01
 S   1 1.00       0.000000000000
      0.2018100000D+00  0.1000000000D+01
 P   2 1.00       0.000000000000
      0.2028136500D+01  0.3618361986D+00
      0.5358730000D+00  0.7039303088D+00
 D   1 1.00       0.000000000000
      0.2216512400D+01  0.1000000000D+01
 ****
      4 0
 S   3 1.00       0.000000000000
      0.1567529270D+02  0.3261158972D-01
      0.3606357800D+01  0.2298046837D+00
      0.1208001600D+01  0.7572083240D+00
 S   1 1.00       0.000000000000
      0.4726794000D+00  0.1000000000D+01
 S   1 1.00       0.000000000000
      0.2018100000D+00  0.1000000000D+01
 P   2 1.00       0.000000000000
      0.2028136500D+01  0.3618361986D+00
      0.5358730000D+00  0.7039303088D+00
 D   1 1.00       0.000000000000
      0.2216512400D+01  0.1000000000D+01
 ****

 There are    82 symmetry adapted density basis functions of A   symmetry.
 Leave Link  301 at Wed Jan 24 15:00:13 2018, MaxMem=   536870912 cpu:         0.2
 (Enter /home/chemsoft/gaussian/g09e01/g09/l302.exe)
 NPDir=0 NMtPBC=     1 NCelOv=     1 NCel=       1 NClECP=     1 NCelD=      1
         NCelK=      1 NCelE2=     1 NClLst=     1 CellRange=     0.0.
 One-electron integrals computed using PRISM.
 One-electron integral symmetry used in STVInt
   6 Symmetry operations used in ECPInt.
 ECPInt:  NShTT=     120 NPrTT=     400 LenC2=     121 LenP2D=     397.
 LDataN:  DoStor=T MaxTD1= 4 Len=   56
 NBasis=    29 RedAO= T EigKep=  5.59D-03  NBF=    19    10
 NBsUse=    29 1.00D-06 EigRej= -1.00D+00 NBFU=    19    10
 NBasis=       29 NBas6D=       30 NTT=         435   NTT6D=      465
 NDBShl=       30 NDBF=         82 NDBF6D=       97  NNucDB=        0
 IDenFi=        2 ISolve=        0 FullAP=F BlkAPC=T NucTyp=        0
 TolInv= 1.00D-06 TolIt=  1.00D-10 IR12=0.
 FoFCou: FMM=F IPFlag=           0 FMFlag=           0 FMFlg1=           0
         NFxFlg=           0 DoJE=F BraDBF=T KetDBF=T FulRan=T
         wScrn=  0.000000 ICntrl=     600 IOpCl=  3 I1Cent=           6 NGrid=           0
         NMat0=    1 NMatS0=     97 NMatT0=    0 NMatD0=    1 NMtDS0=    0 NMtDT0=    0
 Petite list used in FoFCou.
 DBF EigKep=  1.93D-04 EigRej= -1.00D+00
 NDBF=     82  NBFD=    82
 NRank=    82 NBFDU=    82
 S*AI*S=  5.45769669563    
 Precomputing XC quadrature grid using
 IXCGrd= 4 IRadAn=           5 IRanWt=          -1 IRanGd=           0 AccXCQ= 0.00D+00.
 Generated NRdTot=       0 NPtTot=           0 NUsed=           0 NTot=          32
 NSgBfM=    30    30    30    30    30 MxSgAt=     4 MxSgA2=     4.
 Leave Link  302 at Wed Jan 24 15:00:14 2018, MaxMem=   536870912 cpu:         0.4
 (Enter /home/chemsoft/gaussian/g09e01/g09/l303.exe)
 DipDrv:  MaxL=1.
 Leave Link  303 at Wed Jan 24 15:00:14 2018, MaxMem=   536870912 cpu:         0.1
 (Enter /home/chemsoft/gaussian/g09e01/g09/l401.exe)
 ExpMin= 8.36D-02 ExpMax= 8.39D+02 ExpMxC= 1.26D+02 IAcc=3 IRadAn=         5 AccDes= 0.00D+00
 Harris functional with IExCor= 3630 and IRadAn=       5 diagonalized for initial guess.
 HarFok:  IExCor= 3630 AccDes= 0.00D+00 IRadAn=         5 IDoV= 1 UseB2=F ITyADJ=14
 ICtDFT=  3500011 ScaDFX=  1.000000  1.000000  1.000000  1.000000
 FoFCou: FMM=F IPFlag=           0 FMFlag=      100000 FMFlg1=           0
         NFxFlg=           0 DoJE=T BraDBF=F KetDBF=T FulRan=T
         wScrn=  0.000000 ICntrl=     500 IOpCl=  0 I1Cent=   200000004 NGrid=           0
         NMat0=    1 NMatS0=      1 NMatT0=    0 NMatD0=    1 NMtDS0=    0 NMtDT0=    0
 Petite list used in FoFCou.
 Harris En= -26.5467648005128    
 JPrj=0 DoOrth=F DoCkMO=F.
 Initial guess orbital symmetries:
       Occupied  (A1) (A1) (E) (E)
       Virtual   (A1) (A1) (E) (E) (E) (E) (A1) (A1) (E) (E) (E)
                 (E) (A1) (A1) (A2) (E) (E) (E) (E) (A1) (E) (E)
                 (A1) (E) (E)
 The electronic state of the initial guess is 1-A1.
 Leave Link  401 at Wed Jan 24 15:00:15 2018, MaxMem=   536870912 cpu:         0.6
 (Enter /home/chemsoft/gaussian/g09e01/g09/l502.exe)
 Closed shell SCF:
 Density fitting will be used, IDenFit= 2 NucTyp=  0.
 Using DIIS extrapolation, IDIIS=  1040.
 Integral symmetry usage will be decided dynamically.
 IVT=      257426 IEndB=      257426 NGot=   536870912 MDV=   536865417
 LenX=   536865417 LenY=   536864076
 Requested convergence on RMS density matrix=1.00D-08 within 500 cycles.
 Requested convergence on MAX density matrix=1.00D-06.
 Requested convergence on             energy=1.00D-06.
 No special actions if energy rises.
 Fock matrices will be formed incrementally for  20 cycles.

 Cycle   1  Pass 0  IDiag  1:
 FoFCou: FMM=F IPFlag=           0 FMFlag=      100000 FMFlg1=           0
         NFxFlg=           0 DoJE=T BraDBF=T KetDBF=F FulRan=T
         wScrn=  0.000000 ICntrl=     500 IOpCl=  0 I1Cent=           5 NGrid=           0
         NMat0=    1 NMatS0=      1 NMatT0=    0 NMatD0=    1 NMtDS0=    0 NMtDT0=    0
 Petite list used in FoFCou.
 FoFJK:  IHMeth= 1 ICntrl=     500 DoSepK=F KAlg= 0 I1Cent=   4 FoldK=F
 IRaf= 990000000 NMat=   1 IRICut=       1 DoRegI=T DoRafI=F ISym2E= 1.
 E= -26.4069560676326    
 DIIS: error= 2.85D-02 at cycle   1 NSaved=   1.
 NSaved= 1 IEnMin= 1 EnMin= -26.4069560676326     IErMin= 1 ErrMin= 2.85D-02
 ErrMax= 2.85D-02  0.00D+00 EMaxC= 1.00D-01 BMatC= 2.72D-02 BMatP= 2.72D-02
 IDIUse=3 WtCom= 7.15D-01 WtEn= 2.85D-01
 Coeff-Com:  0.100D+01
 Coeff-En:   0.100D+01
 Coeff:      0.100D+01
 Gap=     0.146 Goal=   None    Shift=    0.000
 GapD=    0.146 DampG=1.000 DampE=0.500 DampFc=0.5000 IDamp=-1.
 Damping current iteration by 5.00D-01
 RMSDP=1.07D-02 MaxDP=6.01D-02              OVMax= 1.79D-01

 Cycle   2  Pass 0  IDiag  1:
 RMSU=  4.91D-03    CP:  9.56D-01
 E= -26.4323678729906     Delta-E=       -0.025411805358 Rises=F Damp=T
 DIIS: error= 4.41D-03 at cycle   2 NSaved=   2.
 NSaved= 2 IEnMin= 2 EnMin= -26.4323678729906     IErMin= 2 ErrMin= 4.41D-03
 ErrMax= 4.41D-03  0.00D+00 EMaxC= 1.00D-01 BMatC= 9.15D-04 BMatP= 2.72D-02
 IDIUse=3 WtCom= 9.56D-01 WtEn= 4.41D-02
 Coeff-Com: -0.172D+00 0.117D+01
 Coeff-En:   0.000D+00 0.100D+01
 Coeff:     -0.164D+00 0.116D+01
 Gap=     0.173 Goal=   None    Shift=    0.000
 RMSDP=1.52D-03 MaxDP=1.09D-02 DE=-2.54D-02 OVMax= 8.10D-02

 Cycle   3  Pass 0  IDiag  1:
 RMSU=  1.09D-03    CP:  9.50D-01  1.21D+00
 E= -26.4543608196981     Delta-E=       -0.021992946707 Rises=F Damp=F
 DIIS: error= 9.83D-04 at cycle   3 NSaved=   3.
 NSaved= 3 IEnMin= 3 EnMin= -26.4543608196981     IErMin= 3 ErrMin= 9.83D-04
 ErrMax= 9.83D-04  0.00D+00 EMaxC= 1.00D-01 BMatC= 1.64D-05 BMatP= 9.15D-04
 IDIUse=3 WtCom= 9.90D-01 WtEn= 9.83D-03
 Coeff-Com: -0.383D-01 0.137D+00 0.902D+00
 Coeff-En:   0.000D+00 0.000D+00 0.100D+01
 Coeff:     -0.379D-01 0.135D+00 0.903D+00
 Gap=     0.175 Goal=   None    Shift=    0.000
 RMSDP=1.71D-04 MaxDP=1.13D-03 DE=-2.20D-02 OVMax= 2.85D-03

 Cycle   4  Pass 0  IDiag  1:
 RMSU=  1.34D-04    CP:  9.49D-01  1.22D+00  9.34D-01
 E= -26.4543837735902     Delta-E=       -0.000022953892 Rises=F Damp=F
 DIIS: error= 1.63D-04 at cycle   4 NSaved=   4.
 NSaved= 4 IEnMin= 4 EnMin= -26.4543837735902     IErMin= 4 ErrMin= 1.63D-04
 ErrMax= 1.63D-04  0.00D+00 EMaxC= 1.00D-01 BMatC= 4.23D-07 BMatP= 1.64D-05
 IDIUse=3 WtCom= 9.98D-01 WtEn= 1.63D-03
 Coeff-Com: -0.118D-01 0.354D-01 0.250D+00 0.726D+00
 Coeff-En:   0.000D+00 0.000D+00 0.000D+00 0.100D+01
 Coeff:     -0.118D-01 0.354D-01 0.250D+00 0.727D+00
 Gap=     0.175 Goal=   None    Shift=    0.000
 RMSDP=3.73D-05 MaxDP=3.26D-04 DE=-2.30D-05 OVMax= 3.95D-04

 Cycle   5  Pass 0  IDiag  1:
 RMSU=  2.94D-05    CP:  9.49D-01  1.22D+00  9.44D-01  9.27D-01
 E= -26.4543844631329     Delta-E=       -0.000000689543 Rises=F Damp=F
 DIIS: error= 4.25D-05 at cycle   5 NSaved=   5.
 NSaved= 5 IEnMin= 5 EnMin= -26.4543844631329     IErMin= 5 ErrMin= 4.25D-05
 ErrMax= 4.25D-05  0.00D+00 EMaxC= 1.00D-01 BMatC= 3.82D-08 BMatP= 4.23D-07
 IDIUse=1 WtCom= 1.00D+00 WtEn= 0.00D+00
 Coeff-Com: -0.151D-02 0.145D-02 0.163D-01 0.244D+00 0.740D+00
 Coeff:     -0.151D-02 0.145D-02 0.163D-01 0.244D+00 0.740D+00
 Gap=     0.175 Goal=   None    Shift=    0.000
 RMSDP=7.15D-06 MaxDP=6.57D-05 DE=-6.90D-07 OVMax= 1.21D-04

 Initial convergence to 1.0D-05 achieved.  Increase integral accuracy.
 Cycle   6  Pass 1  IDiag  1:
 E= -26.4543860097639     Delta-E=       -0.000001546631 Rises=F Damp=F
 DIIS: error= 1.96D-06 at cycle   1 NSaved=   1.
 NSaved= 1 IEnMin= 1 EnMin= -26.4543860097639     IErMin= 1 ErrMin= 1.96D-06
 ErrMax= 1.96D-06  0.00D+00 EMaxC= 1.00D-01 BMatC= 1.97D-10 BMatP= 1.97D-10
 IDIUse=1 WtCom= 1.00D+00 WtEn= 0.00D+00
 Coeff-Com:  0.100D+01
 Coeff:      0.100D+01
 Gap=     0.175 Goal=   None    Shift=    0.000
 RMSDP=7.15D-06 MaxDP=6.57D-05 DE=-1.55D-06 OVMax= 6.35D-06

 Cycle   7  Pass 1  IDiag  1:
 RMSU=  4.13D-07    CP:  1.00D+00
 E= -26.4543860099012     Delta-E=       -0.000000000137 Rises=F Damp=F
 DIIS: error= 9.75D-07 at cycle   2 NSaved=   2.
 NSaved= 2 IEnMin= 2 EnMin= -26.4543860099012     IErMin= 2 ErrMin= 9.75D-07
 ErrMax= 9.75D-07  0.00D+00 EMaxC= 1.00D-01 BMatC= 1.87D-11 BMatP= 1.97D-10
 IDIUse=1 WtCom= 1.00D+00 WtEn= 0.00D+00
 Coeff-Com:  0.179D+00 0.821D+00
 Coeff:      0.179D+00 0.821D+00
 Gap=     0.175 Goal=   None    Shift=    0.000
 RMSDP=2.63D-07 MaxDP=2.54D-06 DE=-1.37D-10 OVMax= 3.21D-06

 Cycle   8  Pass 1  IDiag  1:
 RMSU=  1.85D-07    CP:  1.00D+00  5.83D-01
 E= -26.4543860099262     Delta-E=       -0.000000000025 Rises=F Damp=F
 DIIS: error= 4.26D-07 at cycle   3 NSaved=   3.
 NSaved= 3 IEnMin= 3 EnMin= -26.4543860099262     IErMin= 3 ErrMin= 4.26D-07
 ErrMax= 4.26D-07  0.00D+00 EMaxC= 1.00D-01 BMatC= 3.31D-12 BMatP= 1.87D-11
 IDIUse=1 WtCom= 1.00D+00 WtEn= 0.00D+00
 Coeff-Com: -0.118D-01 0.284D+00 0.727D+00
 Coeff:     -0.118D-01 0.284D+00 0.727D+00
 Gap=     0.175 Goal=   None    Shift=    0.000
 RMSDP=7.24D-08 MaxDP=7.40D-07 DE=-2.50D-11 OVMax= 9.26D-07

 Cycle   9  Pass 1  IDiag  1:
 RMSU=  1.17D-08    CP:  1.00D+00  7.00D-01  7.33D-01
 E= -26.4543860099313     Delta-E=       -0.000000000005 Rises=F Damp=F
 DIIS: error= 1.30D-08 at cycle   4 NSaved=   4.
 NSaved= 4 IEnMin= 4 EnMin= -26.4543860099313     IErMin= 4 ErrMin= 1.30D-08
 ErrMax= 1.30D-08  0.00D+00 EMaxC= 1.00D-01 BMatC= 2.81D-15 BMatP= 3.31D-12
 IDIUse=1 WtCom= 1.00D+00 WtEn= 0.00D+00
 Coeff-Com: -0.332D-02 0.814D-01 0.206D+00 0.715D+00
 Coeff:     -0.332D-02 0.814D-01 0.206D+00 0.715D+00
 Gap=     0.175 Goal=   None    Shift=    0.000
 RMSDP=2.68D-09 MaxDP=1.70D-08 DE=-5.08D-12 OVMax= 4.92D-08

 SCF Done:  E(RB97D3) =  -26.4543860099     A.U. after    9 cycles
            NFock=  9  Conv=0.27D-08     -V/T= 1.9866
 KE= 2.681485601276D+01 PE=-7.824522012925D+01 EE= 1.620322794314D+01
 Leave Link  502 at Wed Jan 24 15:00:21 2018, MaxMem=   536870912 cpu:         5.5
 (Enter /home/chemsoft/gaussian/g09e01/g09/l508.exe)
 QCSCF skips out because SCF is already converged.
 Leave Link  508 at Wed Jan 24 15:00:21 2018, MaxMem=   536870912 cpu:         0.0
 (Enter /home/chemsoft/gaussian/g09e01/g09/l601.exe)
 Copying SCF densities to generalized density rwf, IOpCl= 0 IROHF=0.

 **********************************************************************

            Population analysis using the SCF density.

 **********************************************************************

 Orbital symmetries:
       Occupied  (A1) (A1) (E) (E)
       Virtual   (A1) (A1) (E) (E) (E) (E) (A1) (A1) (E) (E) (E)
                 (E) (A1) (A1) (A2) (E) (E) (E) (E) (A1) (E) (E)
                 (A1) (E) (E)
 The electronic state is 1-A1.
 Alpha  occ. eigenvalues --   -6.52031  -0.49415  -0.30280  -0.30280
 Alpha virt. eigenvalues --   -0.12818   0.14169   0.14686   0.14686   0.24430
 Alpha virt. eigenvalues --    0.24430   0.28258   0.29190   0.66902   0.66902
 Alpha virt. eigenvalues --    0.86798   0.86798   0.88527   1.16189   1.55636
 Alpha virt. eigenvalues --    1.60430   1.60430   1.67992   1.67992   2.08174
 Alpha virt. eigenvalues --    2.22059   2.22059   2.70383   2.94760   2.94760
     Molecular Orbital Coefficients:
                           1         2         3         4         5
                        (A1)--O   (A1)--O   (E)--O    (E)--O    (A1)--V
     Eigenvalues --    -6.52031  -0.49415  -0.30280  -0.30280  -0.12818
   1 1   B  1S          0.98982   0.24957  -0.00000   0.00000  -0.08110
   2        2S         -0.02813   0.36909  -0.00000   0.00000  -0.20228
   3        3S          0.00940   0.21746  -0.00000   0.00000  -0.33750
   4        4PX         0.00000   0.00000   0.00000   0.45215   0.00000
   5        4PY         0.00000   0.00000   0.45215   0.00000   0.00000
   6        4PZ         0.00425   0.06999  -0.00000   0.00000   0.52156
   7        5PX         0.00000   0.00000   0.00000  -0.14477   0.00000
   8        5PY         0.00000  -0.00000  -0.14477   0.00000   0.00000
   9        5PZ         0.00211  -0.02137   0.00000   0.00000  -0.45685
  10        6D 0       -0.00002   0.00281   0.00000   0.00000   0.00821
  11        6D+1        0.00000   0.00000   0.00000   0.00949   0.00000
  12        6D-1       -0.00000   0.00000   0.00949   0.00000   0.00000
  13        6D+2        0.00000  -0.00000   0.01542   0.00000  -0.00000
  14        6D-2        0.00000   0.00000   0.00000   0.01542   0.00000
  15 2   H  1S         -0.00158   0.25527  -0.37947   0.00000   0.08273
  16        2S          0.00030   0.00319  -0.13693   0.00000   0.03982
  17        3PX         0.00000   0.00000   0.00000  -0.01157   0.00000
  18        3PY         0.00452  -0.03167   0.01561   0.00000  -0.00838
  19        3PZ        -0.00166   0.01121  -0.01148   0.00000  -0.01624
  20 3   H  1S         -0.00158   0.25527   0.18974   0.32863   0.08273
  21        2S          0.00030   0.00319   0.06847   0.11859   0.03982
  22        3PX        -0.00391   0.02743   0.01177   0.00882   0.00726
  23        3PY        -0.00226   0.01583  -0.00477   0.01177   0.00419
  24        3PZ        -0.00166   0.01121   0.00574   0.00995  -0.01624
  25 4   H  1S         -0.00158   0.25527   0.18974  -0.32863   0.08273
  26        2S          0.00030   0.00319   0.06847  -0.11859   0.03982
  27        3PX         0.00391  -0.02743  -0.01177   0.00882  -0.00726
  28        3PY        -0.00226   0.01583  -0.00477  -0.01177   0.00419
  29        3PZ        -0.00166   0.01121   0.00574  -0.00995  -0.01624
                           6         7         8         9        10
                        (A1)--V   (E)--V    (E)--V    (E)--V    (E)--V
     Eigenvalues --     0.14169   0.14686   0.14686   0.24430   0.24430
   1 1   B  1S         -0.17482   0.00000  -0.00000  -0.00000   0.00000
   2        2S         -0.96374   0.00000  -0.00000  -0.00000   0.00000
   3        3S          5.35095   0.00000  -0.00000  -0.00000   0.00000
   4        4PX         0.00000  -0.07137   0.00000   0.00000  -0.76494
   5        4PY         0.00000   0.00000   0.07137   0.76494   0.00000
   6        4PZ        -0.02421   0.00000   0.00000   0.00000   0.00000
   7        5PX         0.00000   2.33839   0.00000   0.00000  -0.10593
   8        5PY        -0.00000   0.00000  -2.33839   0.10593   0.00000
   9        5PZ        -1.28883   0.00000   0.00000   0.00000   0.00000
  10        6D 0        0.01603   0.00000   0.00000  -0.00000   0.00000
  11        6D+1        0.00000   0.03623   0.00000   0.00000   0.02092
  12        6D-1       -0.00000   0.00000  -0.03623  -0.02092   0.00000
  13        6D+2       -0.00000   0.00000  -0.04662  -0.01858   0.00000
  14        6D-2        0.00000   0.04662   0.00000   0.00000   0.01858
  15 2   H  1S         -0.09270   0.00000   0.20743  -0.22903   0.00000
  16        2S         -1.66898   0.00000   2.48712   1.35080   0.00000
  17        3PX         0.00000   0.01791   0.00000   0.00000   0.02136
  18        3PY         0.01252   0.00000  -0.00043   0.02019   0.00000
  19        3PZ        -0.01049   0.00000  -0.00762  -0.01529   0.00000
  20 3   H  1S         -0.09270   0.17964  -0.10372   0.11452  -0.19835
  21        2S         -1.66898   2.15391  -1.24356  -0.67540   1.16983
  22        3PX        -0.01084   0.00480   0.00757   0.01799  -0.00980
  23        3PY        -0.00626  -0.00757  -0.01354  -0.01097  -0.01799
  24        3PZ        -0.01049  -0.00660   0.00381   0.00764  -0.01324
  25 4   H  1S         -0.09270  -0.17964  -0.10372   0.11452   0.19835
  26        2S         -1.66898  -2.15391  -1.24356  -0.67540  -1.16983
  27        3PX         0.01084   0.00480  -0.00757  -0.01799  -0.00980
  28        3PY        -0.00626   0.00757  -0.01354  -0.01097   0.01799
  29        3PZ        -0.01049   0.00660   0.00381   0.00764   0.01324
                          11        12        13        14        15
                        (A1)--V   (A1)--V   (E)--V    (E)--V    (E)--V
     Eigenvalues --     0.28258   0.29190   0.66902   0.66902   0.86798
   1 1   B  1S          0.20746  -0.07235   0.00000   0.00000  -0.00000
   2        2S          1.37632  -0.37845   0.00000   0.00000  -0.00000
   3        3S          7.47373   1.20040   0.00000  -0.00000   0.00000
   4        4PX         0.00000   0.00000   0.53369   0.00000   0.00000
   5        4PY         0.00000  -0.00000   0.00000  -0.53369  -0.09396
   6        4PZ         0.08178   0.92995   0.00000   0.00000  -0.00000
   7        5PX         0.00000   0.00000   1.70556   0.00000   0.00000
   8        5PY        -0.00000   0.00000   0.00000  -1.70556  -0.07352
   9        5PZ        -2.21760   0.81341   0.00000   0.00000  -0.00000
  10        6D 0        0.05010   0.01018   0.00000   0.00000  -0.00000
  11        6D+1        0.00000   0.00000  -0.28736   0.00000   0.00000
  12        6D-1       -0.00000   0.00000   0.00000   0.28736   0.60846
  13        6D+2       -0.00000  -0.00000   0.00000   0.38160  -0.43265
  14        6D-2        0.00000   0.00000  -0.38160   0.00000   0.00000
  15 2   H  1S         -0.00492   0.10523   0.00000  -0.72112  -0.06422
  16        2S         -3.56441  -0.42638   0.00000   2.55775   0.14524
  17        3PX         0.00000   0.00000  -0.08462   0.00000   0.00000
  18        3PY        -0.00643  -0.01879   0.00000  -0.16378   0.04740
  19        3PZ        -0.01892  -0.02094   0.00000   0.09177   0.17942
  20 3   H  1S         -0.00492   0.10523  -0.62450   0.36056   0.03211
  21        2S         -3.56441  -0.42638   2.21508  -1.27888  -0.07262
  22        3PX         0.00557   0.01627   0.10168  -0.10756   0.09966
  23        3PY         0.00321   0.00940   0.10756   0.02252  -0.12522
  24        3PZ        -0.01892  -0.02094   0.07947  -0.04588  -0.08971
  25 4   H  1S         -0.00492   0.10523   0.62450   0.36056   0.03211
  26        2S         -3.56441  -0.42638  -2.21508  -1.27888  -0.07262
  27        3PX        -0.00557  -0.01627   0.10168   0.10756  -0.09966
  28        3PY         0.00321   0.00940  -0.10756   0.02252  -0.12522
  29        3PZ        -0.01892  -0.02094  -0.07947  -0.04588  -0.08971
                          16        17        18        19        20
                        (E)--V    (A1)--V   (A1)--V   (A2)--V   (E)--V
     Eigenvalues --     0.86798   0.88527   1.16189   1.55636   1.60430
   1 1   B  1S          0.00000  -0.11568  -0.13278   0.00000   0.00000
   2        2S          0.00000  -0.20258  -0.36319   0.00000   0.00000
   3        3S          0.00000   5.78086   1.00321   0.00000   0.00000
   4        4PX        -0.09396   0.00000   0.00000   0.00000  -0.40482
   5        4PY         0.00000  -0.00000  -0.00000   0.00000   0.00000
   6        4PZ         0.00000  -0.21456  -0.38653   0.00000   0.00000
   7        5PX        -0.07352   0.00000   0.00000   0.00000   0.04680
   8        5PY         0.00000  -0.00000   0.00000   0.00000   0.00000
   9        5PZ         0.00000  -1.49953  -0.15854   0.00000   0.00000
  10        6D 0        0.00000  -0.53953   0.69647   0.00000   0.00000
  11        6D+1        0.60846   0.00000   0.00000   0.00000  -0.52106
  12        6D-1        0.00000  -0.00000  -0.00000   0.00000   0.00000
  13        6D+2        0.00000   0.00000  -0.00000   0.00000   0.00000
  14        6D-2       -0.43265   0.00000   0.00000   0.00000  -0.67736
  15 2   H  1S          0.00000   0.63458   0.66174   0.00000   0.00000
  16        2S          0.00000  -2.68310  -0.64831   0.00000   0.00000
  17        3PX        -0.18276   0.00000   0.00000   0.61216  -0.16086
  18        3PY         0.00000   0.16935   0.14585   0.00000   0.00000
  19        3PZ         0.00000   0.03900  -0.17792   0.00000   0.00000
  20 3   H  1S          0.05562   0.63458   0.66174  -0.00000   0.80837
  21        2S         -0.12578  -2.68310  -0.64831   0.00000  -0.52991
  22        3PX        -0.01014  -0.14666  -0.12631  -0.30608  -0.39281
  23        3PY         0.09966  -0.08468  -0.07292   0.53015  -0.13392
  24        3PZ        -0.15539   0.03900  -0.17792   0.00000   0.06368
  25 4   H  1S         -0.05562   0.63458   0.66174   0.00000  -0.80837
  26        2S          0.12578  -2.68310  -0.64831  -0.00000   0.52991
  27        3PX        -0.01014   0.14666   0.12631  -0.30608  -0.39281
  28        3PY        -0.09966  -0.08468  -0.07292  -0.53015   0.13392
  29        3PZ         0.15539   0.03900  -0.17792  -0.00000  -0.06368
                          21        22        23        24        25
                        (E)--V    (E)--V    (E)--V    (A1)--V   (E)--V
     Eigenvalues --     1.60430   1.67992   1.67992   2.08174   2.22059
   1 1   B  1S         -0.00000   0.00000   0.00000  -0.02848   0.00000
   2        2S          0.00000   0.00000  -0.00000  -0.48345   0.00000
   3        3S          0.00000   0.00000  -0.00000   0.56920   0.00000
   4        4PX         0.00000  -0.08429   0.00000   0.00000   0.00000
   5        4PY         0.40482   0.00000   0.08429  -0.00000  -0.02331
   6        4PZ        -0.00000   0.00000   0.00000   0.40360   0.00000
   7        5PX         0.00000   0.11759   0.00000   0.00000   0.00000
   8        5PY        -0.04680   0.00000  -0.11759   0.00000   0.15989
   9        5PZ        -0.00000   0.00000   0.00000  -0.27900  -0.00000
  10        6D 0       -0.00000   0.00000   0.00000   0.97123   0.00000
  11        6D+1        0.00000   0.62940   0.00000   0.00000   0.00000
  12        6D-1        0.52106   0.00000  -0.62940   0.00000  -0.58794
  13        6D+2        0.67736   0.00000  -0.35987  -0.00000   1.17246
  14        6D-2        0.00000   0.35987   0.00000   0.00000   0.00000
  15 2   H  1S          0.93343   0.00000  -0.40936   0.21175   0.28883
  16        2S         -0.61189   0.00000   0.24934  -0.21052  -0.08587
  17        3PX         0.00000  -0.40499   0.00000   0.00000   0.00000
  18        3PY         0.47013   0.00000   0.27109   0.17268   0.03360
  19        3PZ         0.07353   0.00000   0.71794   0.75527   0.57979
  20 3   H  1S         -0.46671  -0.35451   0.20468   0.21175  -0.14442
  21        2S          0.30594   0.21593  -0.12467  -0.21052   0.04293
  22        3PX         0.13392  -0.30456  -0.05798  -0.14954   0.45656
  23        3PY         0.23818   0.05798   0.37151  -0.08634  -0.75719
  24        3PZ        -0.03676   0.62175  -0.35897   0.75527  -0.28990
  25 4   H  1S         -0.46671   0.35451   0.20468   0.21175  -0.14442
  26        2S          0.30594  -0.21593  -0.12467  -0.21052   0.04293
  27        3PX        -0.13392  -0.30456   0.05798   0.14954  -0.45656
  28        3PY         0.23818  -0.05798   0.37151  -0.08634  -0.75719
  29        3PZ        -0.03676  -0.62175  -0.35897   0.75527  -0.28990
                          26        27        28        29
                        (E)--V    (A1)--V   (E)--V    (E)--V
     Eigenvalues --     2.22059   2.70383   2.94760   2.94760
   1 1   B  1S          0.00000   0.18917   0.00000   0.00000
   2        2S          0.00000   3.49477   0.00000   0.00000
   3        3S          0.00000   1.28071   0.00000   0.00000
   4        4PX        -0.02331   0.00000   2.43501   0.00000
   5        4PY         0.00000  -0.00000   0.00000   2.43501
   6        4PZ         0.00000   1.34966   0.00000   0.00000
   7        5PX         0.15989   0.00000  -0.23471   0.00000
   8        5PY         0.00000  -0.00000   0.00000  -0.23471
   9        5PZ         0.00000  -0.44920   0.00000  -0.00000
  10        6D 0        0.00000  -0.40350   0.00000  -0.00000
  11        6D+1       -0.58794   0.00000   1.10832   0.00000
  12        6D-1        0.00000  -0.00000   0.00000   1.10832
  13        6D+2        0.00000  -0.00000   0.00000   1.04381
  14        6D-2        1.17246   0.00000   1.04381   0.00000
  15 2   H  1S          0.00000  -1.14180   0.00000   2.09930
  16        2S          0.00000  -0.90476   0.00000   0.44369
  17        3PX        -1.02079   0.00000   0.20525   0.00000
  18        3PY         0.00000   0.97028   0.00000  -1.34978
  19        3PZ         0.00000  -0.25549   0.00000   0.54926
  20 3   H  1S         -0.25014  -1.14180  -1.81805  -1.04965
  21        2S          0.07436  -0.90476  -0.38425  -0.22185
  22        3PX        -0.23000  -0.84028  -0.96102  -0.67335
  23        3PY         0.45656  -0.48514  -0.67335  -0.18351
  24        3PZ        -0.50211  -0.25549  -0.47567  -0.27463
  25 4   H  1S          0.25014  -1.14180   1.81805  -1.04965
  26        2S         -0.07436  -0.90476   0.38425  -0.22185
  27        3PX        -0.23000   0.84028  -0.96102   0.67335
  28        3PY        -0.45656  -0.48514   0.67335  -0.18351
  29        3PZ         0.50211  -0.25549   0.47567  -0.27463
          Condensed to atoms (all electrons):
               1          2          3          4
     1  B    3.795875   0.435250   0.435250   0.435250
     2  H    0.435250   0.603730  -0.036428  -0.036428
     3  H    0.435250  -0.036428   0.603730  -0.036428
     4  H    0.435250  -0.036428  -0.036428   0.603730
 Mulliken charges:
               1
     1  B   -0.101626
     2  H    0.033875
     3  H    0.033875
     4  H    0.033875
 Sum of Mulliken charges =  -0.00000
 Mulliken charges with hydrogens summed into heavy atoms:
               1
     1  B   -0.000000
 Electronic spatial extent (au):  <R**2>=             27.9813
 Charge=             -0.0000 electrons
 Dipole moment (field-independent basis, Debye):
    X=             -0.0000    Y=             -0.0000    Z=              1.0328  Tot=              1.0328
 Quadrupole moment (field-independent basis, Debye-Ang):
   XX=             -8.7936   YY=             -8.7936   ZZ=             -5.9701
   XY=              0.0000   XZ=              0.0000   YZ=              0.0000
 Traceless Quadrupole moment (field-independent basis, Debye-Ang):
   XX=             -0.9412   YY=             -0.9412   ZZ=              1.8823
   XY=              0.0000   XZ=              0.0000   YZ=              0.0000
 Octapole moment (field-independent basis, Debye-Ang**2):
  XXX=              0.0000  YYY=             -0.0010  ZZZ=              0.9747  XYY=              0.0000
  XXY=              0.0010  XXZ=             -0.2186  XZZ=              0.0000  YZZ=              0.0000
  YYZ=             -0.2186  XYZ=              0.0000
 Hexadecapole moment (field-independent basis, Debye-Ang**3):
 XXXX=            -17.6827 YYYY=            -17.6827 ZZZZ=             -6.9327 XXXY=              0.0000
 XXXZ=              0.0000 YYYX=              0.0000 YYYZ=             -0.2265 ZZZX=             -0.0000
 ZZZY=             -0.0000 XXYY=             -5.8942 XXZZ=             -4.0770 YYZZ=             -4.0770
 XXYZ=              0.2265 YYXZ=             -0.0000 ZZXY=              0.0000
 N-N= 8.772750163419D+00 E-N=-7.824522015482D+01  KE= 2.681485601276D+01
 Symmetry A'   KE= 2.519001422673D+01
 Symmetry A"   KE= 1.624841786028D+00
 Orbital energies and kinetic energies (alpha):
                                 1                 2
   1         (A1)--O          -6.520307         10.726738
   2         (A1)--O          -0.494146          1.055849
   3         (E)--O           -0.302796          0.812421
   4         (E)--O           -0.302796          0.812421
   5         (A1)--V          -0.128182          0.685774
   6         (A1)--V           0.141690          0.657405
   7         (E)--V            0.146860          0.442931
   8         (E)--V            0.146860          0.442931
   9         (E)--V            0.244303          0.905333
  10         (E)--V            0.244303          0.905333
  11         (A1)--V           0.282576          0.974484
  12         (A1)--V           0.291902          1.159075
  13         (E)--V            0.669019          1.672778
  14         (E)--V            0.669019          1.672778
  15         (E)--V            0.867976          1.675713
  16         (E)--V            0.867976          1.675713
  17         (A1)--V           0.885267          1.936483
  18         (A1)--V           1.161889          2.307114
  19         (A2)--V           1.556357          2.295531
  20         (E)--V            1.604303          2.629134
  21         (E)--V            1.604303          2.629134
  22         (E)--V            1.679925          2.430778
  23         (E)--V            1.679925          2.430778
  24         (A1)--V           2.081739          2.868444
  25         (E)--V            2.220589          2.963596
  26         (E)--V            2.220589          2.963596
  27         (A1)--V           2.703829          4.307869
  28         (E)--V            2.947600          5.004441
  29         (E)--V            2.947600          5.004441
 Total kinetic energy from orbitals= 2.681485601276D+01
 No NMR shielding tensors so no spin-rotation constants.
 Leave Link  601 at Wed Jan 24 15:00:21 2018, MaxMem=   536870912 cpu:         0.2
 (Enter /home/chemsoft/gaussian/g09e01/g09/l701.exe)
 Compute integral first derivatives.
 ... and contract with generalized density number  0.
 R6Disp: Adding Grimme-D3(BJ) dispersion energy 1st derivatives to the gradient.
   6 Symmetry operations used in ECPInt.
 ECPInt:  NShTT=     120 NPrTT=     400 LenC2=     121 LenP2D=     397.
 LDataN:  DoStor=T MaxTD1= 5 Len=  102
 Leave Link  701 at Wed Jan 24 15:00:22 2018, MaxMem=   536870912 cpu:         0.2
 (Enter /home/chemsoft/gaussian/g09e01/g09/l702.exe)
 L702 exits ... SP integral derivatives will be done elsewhere.
 Leave Link  702 at Wed Jan 24 15:00:22 2018, MaxMem=   536870912 cpu:         0.1
 (Enter /home/chemsoft/gaussian/g09e01/g09/l703.exe)
 Compute integral first derivatives, UseDBF=T ICtDFT=           0.
 Integral derivatives from FoFJK, PRISM(SPDF).
 Calling FoFJK, ICntrl=      2527 FMM=F ISym2X=1 I1Cent= 4 IOpClX= 0 NMat=1 NMatS=1 NMatT=0.
 FoFJK:  IHMeth= 1 ICntrl=    2527 DoSepK=F KAlg= 0 I1Cent=   4 FoldK=F
 IRaf=         0 NMat=   1 IRICut=       1 DoRegI=T DoRafI=F ISym2E= 1.
 FoFCou: FMM=F IPFlag=           0 FMFlag=      100000 FMFlg1=         800
         NFxFlg=           0 DoJE=F BraDBF=F KetDBF=T FulRan=T
         wScrn=  0.000000 ICntrl=    2527 IOpCl=  0 I1Cent=           4 NGrid=           0
         NMat0=    1 NMatS0=      1 NMatT0=    0 NMatD0=    1 NMtDS0=    0 NMtDT0=    0
 Petite list used in FoFCou.
 Leave Link  703 at Wed Jan 24 15:00:23 2018, MaxMem=   536870912 cpu:         1.0
 (Enter /home/chemsoft/gaussian/g09e01/g09/l716.exe)
 Dipole        = 0.00000000D+00-2.22044605D-16 4.06336655D-01
 ***** Axes restored to original set *****
 -------------------------------------------------------------------
 Center     Atomic                   Forces (Hartrees/Bohr)
 Number     Number              X              Y              Z
 -------------------------------------------------------------------
      1        5           0.000000000    0.000000000   -0.044892715
      2        1          -0.149943507   -0.000000000    0.014964238
      3        1           0.074971753    0.129854886    0.014964238
      4        1           0.074971753   -0.129854886    0.014964238
 -------------------------------------------------------------------
 Cartesian Forces:  Max     0.149943507 RMS     0.076450587
 Leave Link  716 at Wed Jan 24 15:00:23 2018, MaxMem=   536870912 cpu:         0.1
 (Enter /home/chemsoft/gaussian/g09e01/g09/l103.exe)

 GradGradGradGradGradGradGradGradGradGradGradGradGradGradGradGradGradGrad
 Berny optimization.
 FormGI is forming the generalized inverse of G from B-inverse, IUseBI=4.
 Internal  Forces:  Max     0.143886358 RMS     0.100829215
 Search for a local minimum.
 Step number   1 out of a maximum of  100
 All quantities printed in internal units (Hartrees-Bohrs-Radians)
 RMS Force = .10083D+00 SwitMx=.10000D-02 MixMth= 1
 Mixed Optimization -- RFO/linear search
 Second derivative matrix not updated -- first step.
 The second derivative matrix:
                          R1        R2        R3        A1        A2
           R1           0.44664
           R2           0.00000   0.44664
           R3           0.00000   0.00000   0.44664
           A1           0.00000   0.00000   0.00000   0.16000
           A2           0.00000   0.00000   0.00000   0.00000   0.16000
           A3           0.00000   0.00000   0.00000   0.00000   0.00000
           D1           0.00000   0.00000   0.00000   0.00000   0.00000
                          A3        D1
           A3           0.16000
           D1           0.00000   0.01717
 ITU=  0
     Eigenvalues ---    0.07208   0.16000   0.16000   0.44664   0.44664
     Eigenvalues ---    0.44664
 RFO step:  Lambda=-1.42643892D-01 EMin= 7.20824733D-02
 Linear search not attempted -- first point.
 Maximum step size (   0.100) exceeded in Quadratic search.
    -- Step size scaled by   0.194
 Iteration  1 RMS(Cart)=  0.04401141 RMS(Int)=  0.00110987
 Iteration  2 RMS(Cart)=  0.00054710 RMS(Int)=  0.00084278
 Iteration  3 RMS(Cart)=  0.00000135 RMS(Int)=  0.00084278
 Iteration  4 RMS(Cart)=  0.00000000 RMS(Int)=  0.00084278
 ITry= 1 IFail=0 DXMaxC= 6.18D-02 DCOld= 1.00D+10 DXMaxT= 1.00D-01 DXLimC= 3.00D+00 Rises=F
 ClnCor:  largest displacement from symmetrization is 1.08D-02 for atom     4.
 Variable       Old X    -DE/DX   Delta X   Delta X   Delta X     New X
                                 (Linear)    (Quad)   (Total)
    R1        1.92367   0.14389   0.00000   0.04748   0.04450   1.96817
    R2        1.92367   0.14389   0.00000   0.04748   0.04450   1.96817
    R3        1.92367   0.14389   0.00000   0.04748   0.04450   1.96817
    A1        1.84561   0.01224   0.00000   0.01848   0.02932   1.87493
    A2        1.84561   0.05279   0.00000   0.03787   0.02932   1.87493
    A3        1.84561   0.05279   0.00000   0.03787   0.02932   1.87493
    D1       -1.95243  -0.05772   0.00000  -0.05227  -0.06007  -2.01251
         Item               Value     Threshold  Converged?
 Maximum Force            0.143886     0.000002     NO 
 RMS     Force            0.100829     0.000001     NO 
 Maximum Displacement     0.060881     0.000006     NO 
 RMS     Displacement     0.041162     0.000004     NO 
 Predicted change in Energy=-2.456654D-02
 Lowest energy point so far.  Saving SCF results.
 GradGradGradGradGradGradGradGradGradGradGradGradGradGradGradGradGradGrad

 Leave Link  103 at Wed Jan 24 15:00:23 2018, MaxMem=   536870912 cpu:         0.0
 (Enter /home/chemsoft/gaussian/g09e01/g09/l202.exe)
                          Input orientation:                          
 ---------------------------------------------------------------------
 Center     Atomic      Atomic             Coordinates (Angstroms)
 Number     Number       Type             X           Y           Z
 ---------------------------------------------------------------------
      1          5           0       -0.000000   -0.000000   -0.057763
      2          1           0       -0.969396   -0.000000    0.323049
      3          1           0        0.484698    0.839522    0.323049
      4          1           0        0.484698   -0.839522    0.323049
 ---------------------------------------------------------------------
                    Distance matrix (angstroms):
                    1          2          3          4
     1  B    0.000000
     2  H    1.041512   0.000000
     3  H    1.041512   1.679044   0.000000
     4  H    1.041512   1.679044   1.679044   0.000000
 Stoichiometry    BH3
 Framework group  C3V[C3(B),3SGV(H)]
 Deg. of freedom     2
 Full point group                 C3V     NOp   6
 RotChk:  IX=0 Diff= 3.14D-16
 Largest Abelian subgroup         CS      NOp   2
 Largest concise Abelian subgroup CS      NOp   2
                         Standard orientation:                         
 ---------------------------------------------------------------------
 Center     Atomic      Atomic             Coordinates (Angstroms)
 Number     Number       Type             X           Y           Z
 ---------------------------------------------------------------------
      1          5           0        0.000000    0.000000    0.142805
      2          1           0        0.000000    0.969396   -0.238008
      3          1           0       -0.839522   -0.484698   -0.238008
      4          1           0        0.839522   -0.484698   -0.238008
 ---------------------------------------------------------------------
 Rotational constants (GHZ):    286.3965288    286.3965288    177.8722109
 Leave Link  202 at Wed Jan 24 15:00:23 2018, MaxMem=   536870912 cpu:         0.0
 (Enter /home/chemsoft/gaussian/g09e01/g09/l301.exe)
 Standard basis: def2SVP (5D, 7F)
 Ernie: Thresh=  0.10000D-02 Tol=  0.10000D-05 Strict=F.
 There are    20 symmetry adapted cartesian basis functions of A'  symmetry.
 There are    10 symmetry adapted cartesian basis functions of A"  symmetry.
 There are    19 symmetry adapted basis functions of A'  symmetry.
 There are    10 symmetry adapted basis functions of A"  symmetry.
    29 basis functions,    46 primitive gaussians,    30 cartesian basis functions
     4 alpha electrons        4 beta electrons
       nuclear repulsion energy         8.5667811919 Hartrees.
 IExCor= 3630 DFT=T Ex+Corr=B97D3 ExCW=0 ScaHFX=  0.000000
 ScaDFX=  1.000000  1.000000  1.000000  1.000000 ScalE2=  1.000000  1.000000
 IRadAn=      5 IRanWt=     -1 IRanGd=            0 ICorTp=0 IEmpDi=141
 NAtoms=    4 NActive=    4 NUniq=    2 SFac= 4.00D+00 NAtFMM=   60 NAOKFM=F Big=F
 Integral buffers will be    131072 words long.
 Raffenetti 2 integral format.
 Two-electron integral symmetry is turned on.
 R6Disp:  Grimme-D3(BJ) Dispersion energy=       -0.0028259590 Hartrees.
 Nuclear repulsion after empirical dispersion term =        8.5639552329 Hartrees.
 Standard density basis: W06 (5D, 7F)
    82 Density fitting functions
 There are    82 symmetry adapted density basis functions of A   symmetry.
 Leave Link  301 at Wed Jan 24 15:00:24 2018, MaxMem=   536870912 cpu:         0.2
 (Enter /home/chemsoft/gaussian/g09e01/g09/l302.exe)
 NPDir=0 NMtPBC=     1 NCelOv=     1 NCel=       1 NClECP=     1 NCelD=      1
         NCelK=      1 NCelE2=     1 NClLst=     1 CellRange=     0.0.
 One-electron integrals computed using PRISM.
 One-electron integral symmetry used in STVInt
   6 Symmetry operations used in ECPInt.
 ECPInt:  NShTT=     120 NPrTT=     400 LenC2=     121 LenP2D=     394.
 LDataN:  DoStor=T MaxTD1= 4 Len=   56
 NBasis=    29 RedAO= T EigKep=  6.62D-03  NBF=    19    10
 NBsUse=    29 1.00D-06 EigRej= -1.00D+00 NBFU=    19    10
 NBasis=       29 NBas6D=       30 NTT=         435   NTT6D=      465
 NDBShl=       30 NDBF=         82 NDBF6D=       97  NNucDB=        0
 IDenFi=        2 ISolve=        0 FullAP=F BlkAPC=T NucTyp=        0
 TolInv= 1.00D-06 TolIt=  1.00D-10 IR12=0.
 FoFCou: FMM=F IPFlag=           0 FMFlag=           0 FMFlg1=           0
         NFxFlg=           0 DoJE=F BraDBF=T KetDBF=T FulRan=T
         wScrn=  0.000000 ICntrl=     600 IOpCl=  3 I1Cent=           6 NGrid=           0
         NMat0=    1 NMatS0=     97 NMatT0=    0 NMatD0=    1 NMtDS0=    0 NMtDT0=    0
 Petite list used in FoFCou.
 DBF EigKep=  1.99D-04 EigRej= -1.00D+00
 NDBF=     82  NBFD=    82
 NRank=    82 NBFDU=    82
 S*AI*S=  5.45630378003    
 Precomputing XC quadrature grid using
 IXCGrd= 4 IRadAn=           5 IRanWt=          -1 IRanGd=           0 AccXCQ= 0.00D+00.
 Generated NRdTot=       0 NPtTot=           0 NUsed=           0 NTot=          32
 NSgBfM=    30    30    30    30    30 MxSgAt=     4 MxSgA2=     4.
 Leave Link  302 at Wed Jan 24 15:00:24 2018, MaxMem=   536870912 cpu:         0.5
 (Enter /home/chemsoft/gaussian/g09e01/g09/l303.exe)
 DipDrv:  MaxL=1.
 Leave Link  303 at Wed Jan 24 15:00:24 2018, MaxMem=   536870912 cpu:         0.1
 (Enter /home/chemsoft/gaussian/g09e01/g09/l401.exe)
 Initial guess from the checkpoint file:  "borane.df-b97d3svp.chk"
 B after Tr=    -0.000000    0.000000    0.000000
         Rot=    1.000000   -0.000000    0.000000    0.000000 Ang=   0.00 deg.
 Guess basis will be translated and rotated to current coordinates.
 Recovered     1 saved fitting vectors from chk file.
 JPrj=2 DoOrth=T DoCkMO=T.
 Initial guess orbital symmetries:
       Occupied  (A1) (A1) (E) (E)
       Virtual   (?A) (?A) (?A) (?A) (?A) (?A) (?A) (?A) (?A) (?A)
                 (?A) (?A) (?A) (?A) (?A) (?A) (?A) (?A) (?A) (?A)
                 (?A) (?A) (?A) (?A) (?A)
 The electronic state of the initial guess is 1-A1.
 Generating alternative initial guess.
 ExpMin= 8.36D-02 ExpMax= 8.39D+02 ExpMxC= 1.26D+02 IAcc=2 IRadAn=         4 AccDes= 0.00D+00
 Harris functional with IExCor= 3630 and IRadAn=       4 diagonalized for initial guess.
 HarFok:  IExCor= 3630 AccDes= 0.00D+00 IRadAn=         4 IDoV= 1 UseB2=F ITyADJ=14
 ICtDFT=  3500011 ScaDFX=  1.000000  1.000000  1.000000  1.000000
 FoFCou: FMM=F IPFlag=           0 FMFlag=      100000 FMFlg1=           0
         NFxFlg=           0 DoJE=T BraDBF=F KetDBF=T FulRan=T
         wScrn=  0.000000 ICntrl=     500 IOpCl=  0 I1Cent=   200000004 NGrid=           0
         NMat0=    1 NMatS0=      1 NMatT0=    0 NMatD0=    1 NMtDS0=    0 NMtDT0=    0
 Petite list used in FoFCou.
 Harris En= -26.5605558983010    
 Leave Link  401 at Wed Jan 24 15:00:25 2018, MaxMem=   536870912 cpu:         0.5
 (Enter /home/chemsoft/gaussian/g09e01/g09/l502.exe)
 Closed shell SCF:
 Density fitting will be used, IDenFit= 2 NucTyp=  0.
 Using DIIS extrapolation, IDIIS=  1040.
 Integral symmetry usage will be decided dynamically.
 IVT=      257426 IEndB=      257426 NGot=   536870912 MDV=   536865417
 LenX=   536865417 LenY=   536864076
 Requested convergence on RMS density matrix=1.00D-08 within 500 cycles.
 Requested convergence on MAX density matrix=1.00D-06.
 Requested convergence on             energy=1.00D-06.
 No special actions if energy rises.
 Fock matrices will be formed incrementally for  20 cycles.

 Cycle   1  Pass 0  IDiag  1:
 FoFCou: FMM=F IPFlag=           0 FMFlag=      100000 FMFlg1=           0
         NFxFlg=           0 DoJE=T BraDBF=T KetDBF=F FulRan=T
         wScrn=  0.000000 ICntrl=     500 IOpCl=  0 I1Cent=           5 NGrid=           0
         NMat0=    1 NMatS0=      1 NMatT0=    0 NMatD0=    1 NMtDS0=    0 NMtDT0=    0
 Petite list used in FoFCou.
 FoFJK:  IHMeth= 1 ICntrl=     500 DoSepK=F KAlg= 0 I1Cent=   4 FoldK=F
 IRaf= 990000000 NMat=   1 IRICut=       1 DoRegI=T DoRafI=F ISym2E= 1.
 E= -26.4781721709943    
 DIIS: error= 5.04D-03 at cycle   1 NSaved=   1.
 NSaved= 1 IEnMin= 1 EnMin= -26.4781721709943     IErMin= 1 ErrMin= 5.04D-03
 ErrMax= 5.04D-03  0.00D+00 EMaxC= 1.00D-01 BMatC= 3.27D-04 BMatP= 3.27D-04
 IDIUse=3 WtCom= 9.50D-01 WtEn= 5.04D-02
 Coeff-Com:  0.100D+01
 Coeff-En:   0.100D+01
 Coeff:      0.100D+01
 Gap=     0.673 Goal=   None    Shift=    0.000
 GapD=    0.673 DampG=2.000 DampE=1.000 DampFc=2.0000 IDamp=-1.
 RMSDP=1.15D-03 MaxDP=9.81D-03              OVMax= 1.69D-02

 Cycle   2  Pass 0  IDiag  1:
 RMSU=  1.14D-03    CP:  9.96D-01
 E= -26.4785030767299     Delta-E=       -0.000330905736 Rises=F Damp=F
 DIIS: error= 1.22D-03 at cycle   2 NSaved=   2.
 NSaved= 2 IEnMin= 2 EnMin= -26.4785030767299     IErMin= 2 ErrMin= 1.22D-03
 ErrMax= 1.22D-03  0.00D+00 EMaxC= 1.00D-01 BMatC= 3.72D-05 BMatP= 3.27D-04
 IDIUse=3 WtCom= 9.88D-01 WtEn= 1.22D-02
 Coeff-Com:  0.186D+00 0.814D+00
 Coeff-En:   0.000D+00 0.100D+01
 Coeff:      0.183D+00 0.817D+00
 Gap=     0.179 Goal=   None    Shift=    0.000
 RMSDP=2.97D-04 MaxDP=1.48D-03 DE=-3.31D-04 OVMax= 5.69D-03

 Cycle   3  Pass 0  IDiag  1:
 RMSU=  2.64D-04    CP:  9.98D-01  9.02D-01
 E= -26.4785542971815     Delta-E=       -0.000051220452 Rises=F Damp=F
 DIIS: error= 5.30D-04 at cycle   3 NSaved=   3.
 NSaved= 3 IEnMin= 3 EnMin= -26.4785542971815     IErMin= 3 ErrMin= 5.30D-04
 ErrMax= 5.30D-04  0.00D+00 EMaxC= 1.00D-01 BMatC= 5.79D-06 BMatP= 3.72D-05
 IDIUse=3 WtCom= 9.95D-01 WtEn= 5.30D-03
 Coeff-Com:  0.402D-02 0.284D+00 0.712D+00
 Coeff-En:   0.000D+00 0.000D+00 0.100D+01
 Coeff:      0.400D-02 0.283D+00 0.713D+00
 Gap=     0.178 Goal=   None    Shift=    0.000
 RMSDP=8.31D-05 MaxDP=4.82D-04 DE=-5.12D-05 OVMax= 1.79D-03

 Cycle   4  Pass 0  IDiag  1:
 RMSU=  1.87D-05    CP:  9.98D-01  9.38D-01  7.46D-01
 E= -26.4785636518350     Delta-E=       -0.000009354654 Rises=F Damp=F
 DIIS: error= 1.78D-05 at cycle   4 NSaved=   4.
 NSaved= 4 IEnMin= 4 EnMin= -26.4785636518350     IErMin= 4 ErrMin= 1.78D-05
 ErrMax= 1.78D-05  0.00D+00 EMaxC= 1.00D-01 BMatC= 5.58D-09 BMatP= 5.79D-06
 IDIUse=1 WtCom= 1.00D+00 WtEn= 0.00D+00
 Coeff-Com: -0.866D-03 0.327D-01 0.964D-01 0.872D+00
 Coeff:     -0.866D-03 0.327D-01 0.964D-01 0.872D+00
 Gap=     0.178 Goal=   None    Shift=    0.000
 RMSDP=4.64D-06 MaxDP=2.40D-05 DE=-9.35D-06 OVMax= 5.76D-05

 Initial convergence to 1.0D-05 achieved.  Increase integral accuracy.
 Cycle   5  Pass 1  IDiag  1:
 E= -26.4785660672772     Delta-E=       -0.000002415442 Rises=F Damp=F
 DIIS: error= 7.62D-06 at cycle   1 NSaved=   1.
 NSaved= 1 IEnMin= 1 EnMin= -26.4785660672772     IErMin= 1 ErrMin= 7.62D-06
 ErrMax= 7.62D-06  0.00D+00 EMaxC= 1.00D-01 BMatC= 1.19D-09 BMatP= 1.19D-09
 IDIUse=1 WtCom= 1.00D+00 WtEn= 0.00D+00
 Coeff-Com:  0.100D+01
 Coeff:      0.100D+01
 Gap=     0.178 Goal=   None    Shift=    0.000
 RMSDP=4.64D-06 MaxDP=2.40D-05 DE=-2.42D-06 OVMax= 2.83D-05

 Cycle   6  Pass 1  IDiag  1:
 RMSU=  2.49D-06    CP:  1.00D+00
 E= -26.4785660679754     Delta-E=       -0.000000000698 Rises=F Damp=F
 DIIS: error= 5.74D-06 at cycle   2 NSaved=   2.
 NSaved= 2 IEnMin= 2 EnMin= -26.4785660679754     IErMin= 2 ErrMin= 5.74D-06
 ErrMax= 5.74D-06  0.00D+00 EMaxC= 1.00D-01 BMatC= 6.18D-10 BMatP= 1.19D-09
 IDIUse=1 WtCom= 1.00D+00 WtEn= 0.00D+00
 Coeff-Com:  0.417D+00 0.583D+00
 Coeff:      0.417D+00 0.583D+00
 Gap=     0.178 Goal=   None    Shift=    0.000
 RMSDP=1.17D-06 MaxDP=1.23D-05 DE=-6.98D-10 OVMax= 1.30D-05

 Cycle   7  Pass 1  IDiag  1:
 RMSU=  2.04D-07    CP:  1.00D+00  5.45D-01
 E= -26.4785660689267     Delta-E=       -0.000000000951 Rises=F Damp=F
 DIIS: error= 2.23D-07 at cycle   3 NSaved=   3.
 NSaved= 3 IEnMin= 3 EnMin= -26.4785660689267     IErMin= 3 ErrMin= 2.23D-07
 ErrMax= 2.23D-07  0.00D+00 EMaxC= 1.00D-01 BMatC= 1.22D-12 BMatP= 6.18D-10
 IDIUse=1 WtCom= 1.00D+00 WtEn= 0.00D+00
 Coeff-Com:  0.927D-02 0.489D-01 0.942D+00
 Coeff:      0.927D-02 0.489D-01 0.942D+00
 Gap=     0.178 Goal=   None    Shift=    0.000
 RMSDP=5.11D-08 MaxDP=4.06D-07 DE=-9.51D-10 OVMax= 9.71D-07

 Cycle   8  Pass 1  IDiag  1:
 RMSU=  3.03D-08    CP:  1.00D+00  5.61D-01  9.74D-01
 E= -26.4785660689282     Delta-E=       -0.000000000001 Rises=F Damp=F
 DIIS: error= 8.95D-08 at cycle   4 NSaved=   4.
 NSaved= 4 IEnMin= 4 EnMin= -26.4785660689282     IErMin= 4 ErrMin= 8.95D-08
 ErrMax= 8.95D-08  0.00D+00 EMaxC= 1.00D-01 BMatC= 1.36D-13 BMatP= 1.22D-12
 IDIUse=1 WtCom= 1.00D+00 WtEn= 0.00D+00
 Coeff-Com: -0.398D-02 0.961D-02 0.388D+00 0.606D+00
 Coeff:     -0.398D-02 0.961D-02 0.388D+00 0.606D+00
 Gap=     0.178 Goal=   None    Shift=    0.000
 RMSDP=1.24D-08 MaxDP=6.81D-08 DE=-1.45D-12 OVMax= 2.74D-07

 Cycle   9  Pass 1  IDiag  1:
 RMSU=  2.30D-09    CP:  1.00D+00  5.61D-01  9.81D-01  6.11D-01
 E= -26.4785660689283     Delta-E=       -0.000000000000 Rises=F Damp=F
 DIIS: error= 4.92D-10 at cycle   5 NSaved=   5.
 NSaved= 5 IEnMin= 5 EnMin= -26.4785660689283     IErMin= 5 ErrMin= 4.92D-10
 ErrMax= 4.92D-10  0.00D+00 EMaxC= 1.00D-01 BMatC= 1.02D-17 BMatP= 1.36D-13
 IDIUse=1 WtCom= 1.00D+00 WtEn= 0.00D+00
 Coeff-Com:  0.703D-04-0.539D-03-0.137D-01-0.230D-01 0.104D+01
 Coeff:      0.703D-04-0.539D-03-0.137D-01-0.230D-01 0.104D+01
 Gap=     0.178 Goal=   None    Shift=    0.000
 RMSDP=2.31D-10 MaxDP=1.47D-09 DE=-1.63D-13 OVMax= 1.64D-09

 SCF Done:  E(RB97D3) =  -26.4785660689     A.U. after    9 cycles
            NFock=  9  Conv=0.23D-09     -V/T= 1.9911
 KE= 2.671722620103D+01 PE=-7.779038709261D+01 EE= 1.603063958979D+01
 Leave Link  502 at Wed Jan 24 15:00:31 2018, MaxMem=   536870912 cpu:         6.3
 (Enter /home/chemsoft/gaussian/g09e01/g09/l508.exe)
 QCSCF skips out because SCF is already converged.
 Leave Link  508 at Wed Jan 24 15:00:31 2018, MaxMem=   536870912 cpu:         0.0
 (Enter /home/chemsoft/gaussian/g09e01/g09/l701.exe)
 Compute integral first derivatives.
 ... and contract with generalized density number  0.
 R6Disp: Adding Grimme-D3(BJ) dispersion energy 1st derivatives to the gradient.
   6 Symmetry operations used in ECPInt.
 ECPInt:  NShTT=     120 NPrTT=     400 LenC2=     121 LenP2D=     394.
 LDataN:  DoStor=T MaxTD1= 5 Len=  102
 Leave Link  701 at Wed Jan 24 15:00:31 2018, MaxMem=   536870912 cpu:         0.2
 (Enter /home/chemsoft/gaussian/g09e01/g09/l702.exe)
 L702 exits ... SP integral derivatives will be done elsewhere.
 Leave Link  702 at Wed Jan 24 15:00:31 2018, MaxMem=   536870912 cpu:         0.0
 (Enter /home/chemsoft/gaussian/g09e01/g09/l703.exe)
 Compute integral first derivatives, UseDBF=T ICtDFT=           0.
 Integral derivatives from FoFJK, PRISM(SPDF).
 Calling FoFJK, ICntrl=      2527 FMM=F ISym2X=1 I1Cent= 4 IOpClX= 0 NMat=1 NMatS=1 NMatT=0.
 FoFJK:  IHMeth= 1 ICntrl=    2527 DoSepK=F KAlg= 0 I1Cent=   4 FoldK=F
 IRaf=         0 NMat=   1 IRICut=       1 DoRegI=T DoRafI=F ISym2E= 1.
 FoFCou: FMM=F IPFlag=           0 FMFlag=      100000 FMFlg1=         800
         NFxFlg=           0 DoJE=F BraDBF=F KetDBF=T FulRan=T
         wScrn=  0.000000 ICntrl=    2527 IOpCl=  0 I1Cent=           4 NGrid=           0
         NMat0=    1 NMatS0=      1 NMatT0=    0 NMatD0=    1 NMtDS0=    0 NMtDT0=    0
 Petite list used in FoFCou.
 Leave Link  703 at Wed Jan 24 15:00:32 2018, MaxMem=   536870912 cpu:         0.8
 (Enter /home/chemsoft/gaussian/g09e01/g09/l716.exe)
 Dipole        = 0.00000000D+00 2.22044605D-16 3.80668260D-01
 ***** Axes restored to original set *****
 -------------------------------------------------------------------
 Center     Atomic                   Forces (Hartrees/Bohr)
 Number     Number              X              Y              Z
 -------------------------------------------------------------------
      1        5           0.000000000    0.000000000   -0.017407404
      2        1          -0.125634611   -0.000000000    0.005802468
      3        1           0.062817306    0.108802765    0.005802468
      4        1           0.062817306   -0.108802765    0.005802468
 -------------------------------------------------------------------
 Cartesian Forces:  Max     0.125634611 RMS     0.063084725
 Leave Link  716 at Wed Jan 24 15:00:32 2018, MaxMem=   536870912 cpu:         0.0
 (Enter /home/chemsoft/gaussian/g09e01/g09/l103.exe)

 GradGradGradGradGradGradGradGradGradGradGradGradGradGradGradGradGradGrad
 Berny optimization.
 Using GEDIIS/GDIIS optimizer.
 FormGI is forming the generalized inverse of G from B-inverse, IUseBI=4.
 Internal  Forces:  Max     0.119057082 RMS     0.084627538
 Search for a local minimum.
 Step number   2 out of a maximum of  100
 All quantities printed in internal units (Hartrees-Bohrs-Radians)
 RMS Force = .84628D-01 SwitMx=.10000D-02 MixMth= 1
 Mixed Optimization -- RFO/linear search
 Update second derivatives using D2CorX and points    1    2
 DE= -2.42D-02 DEPred=-2.46D-02 R= 9.84D-01
 TightC=F SS=  1.41D+00  RLast= 1.10D-01 DXNew= 1.6818D-01 3.3038D-01
 Trust test= 9.84D-01 RLast= 1.10D-01 DXMaxT set to 1.68D-01
 The second derivative matrix:
                          R1        R2        R3        A1        A2
           R1           0.48059
           R2           0.03394   0.48059
           R3           0.03394   0.03394   0.48059
           A1          -0.00888  -0.00888  -0.00888   0.15570
           A2           0.01060   0.01060   0.01060  -0.00176   0.16316
           A3           0.01060   0.01060   0.01060  -0.00176   0.00316
           D1          -0.00102  -0.00102  -0.00102   0.00056  -0.00036
                          A3        D1
           A3           0.16316
           D1          -0.00036   0.01719
 ITU=  1  0
 Use linear search instead of GDIIS.
 Linear search step of   0.185 exceeds DXMaxT=   0.168 but not scaled.
 Quartic linear search produced a step of  2.00000.
 Iteration  1 RMS(Cart)=  0.08220670 RMS(Int)=  0.00480875
 Iteration  2 RMS(Cart)=  0.00177790 RMS(Int)=  0.00410769
 Iteration  3 RMS(Cart)=  0.00001864 RMS(Int)=  0.00410765
 Iteration  4 RMS(Cart)=  0.00000018 RMS(Int)=  0.00410765
 ITry= 1 IFail=0 DXMaxC= 1.19D-01 DCOld= 1.00D+10 DXMaxT= 1.68D-01 DXLimC= 3.00D+00 Rises=F
 ClnCor:  largest displacement from symmetrization is 1.79D-03 for atom     4.
 Variable       Old X    -DE/DX   Delta X   Delta X   Delta X     New X
                                 (Linear)    (Quad)   (Total)
    R1        1.96817   0.11906   0.08900   0.00000   0.08849   2.05666
    R2        1.96817   0.11906   0.08900   0.00000   0.08849   2.05666
    R3        1.96817   0.11906   0.08900   0.00000   0.08849   2.05666
    A1        1.87493   0.00899   0.05864   0.00000   0.05342   1.92835
    A2        1.87493   0.04653   0.05864   0.00000   0.05342   1.92835
    A3        1.87493   0.04653   0.05864   0.00000   0.05342   1.92835
    D1       -2.01251  -0.05655  -0.12015   0.00000  -0.12686  -2.13936
         Item               Value     Threshold  Converged?
 Maximum Force            0.119057     0.000002     NO 
 RMS     Force            0.084628     0.000001     NO 
 Maximum Displacement     0.119213     0.000006     NO 
 RMS     Displacement     0.081266     0.000004     NO 
 Predicted change in Energy=-3.675335D-02
 Lowest energy point so far.  Saving SCF results.
 GradGradGradGradGradGradGradGradGradGradGradGradGradGradGradGradGradGrad

 Leave Link  103 at Wed Jan 24 15:00:32 2018, MaxMem=   536870912 cpu:         0.0
 (Enter /home/chemsoft/gaussian/g09e01/g09/l202.exe)
                          Input orientation:                          
 ---------------------------------------------------------------------
 Center     Atomic      Atomic             Coordinates (Angstroms)
 Number     Number       Type             X           Y           Z
 ---------------------------------------------------------------------
      1          5           0       -0.000000    0.000000   -0.030238
      2          1           0       -1.032481   -0.000000    0.313942
      3          1           0        0.516241    0.894155    0.313942
      4          1           0        0.516241   -0.894155    0.313942
 ---------------------------------------------------------------------
                    Distance matrix (angstroms):
                    1          2          3          4
     1  B    0.000000
     2  H    1.088337   0.000000
     3  H    1.088337   1.788310   0.000000
     4  H    1.088337   1.788310   1.788310   0.000000
 Stoichiometry    BH3
 Framework group  C3V[C3(B),3SGV(H)]
 Deg. of freedom     2
 Full point group                 C3V     NOp   6
 RotChk:  IX=0 Diff= 3.14D-16
 Largest Abelian subgroup         CS      NOp   2
 Largest concise Abelian subgroup CS      NOp   2
                         Standard orientation:                         
 ---------------------------------------------------------------------
 Center     Atomic      Atomic             Coordinates (Angstroms)
 Number     Number       Type             X           Y           Z
 ---------------------------------------------------------------------
      1          5           0        0.000000    0.000000    0.129067
      2          1           0        0.000000    1.032481   -0.215112
      3          1           0       -0.894155   -0.516241   -0.215112
      4          1           0        0.894155   -0.516241   -0.215112
 ---------------------------------------------------------------------
 Rotational constants (GHZ):    267.0388162    267.0388162    156.8001940
 Leave Link  202 at Wed Jan 24 15:00:32 2018, MaxMem=   536870912 cpu:         0.0
[...]
 ---------------------------------------------------------------------
 Rotational constants (GHZ):    227.4138185    227.4138185    113.7069093
 Leave Link  202 at Wed Jan 24 15:01:16 2018, MaxMem=   536870912 cpu:         0.0
 (Enter /home/chemsoft/gaussian/g09e01/g09/l601.exe)
 Copying SCF densities to generalized density rwf, IOpCl= 0 IROHF=0.

 **********************************************************************

            Population analysis using the SCF density.

 **********************************************************************

 Orbital symmetries:
       Occupied  (?A) (?A) (?B) (?B)
       Virtual   (A1) (?B) (?B) (?A) (?A) (?B) (?B) (A1) (?B) (?B)
                 (?A) (?C) (?C) (?B) (?B) (?A) (?A) (A1) (?C) (?C)
                 (?B) (?B) (?A) (?B) (?B)
 Unable to determine electronic state:  an orbital has unidentified symmetry.
 Alpha  occ. eigenvalues --   -6.57058  -0.45394  -0.30798  -0.30798
 Alpha virt. eigenvalues --   -0.10026   0.12423   0.12423   0.12914   0.18249
 Alpha virt. eigenvalues --    0.23813   0.23813   0.30726   0.61357   0.61357
 Alpha virt. eigenvalues --    0.62077   0.87223   0.87223   1.22932   1.22932
 Alpha virt. eigenvalues --    1.25087   1.36524   1.57406   1.77454   1.77454
 Alpha virt. eigenvalues --    1.97669   1.97669   2.36738   2.51391   2.51391
     Molecular Orbital Coefficients:
                           1         2         3         4         5
                           O         O         O         O      (A1)--V
     Eigenvalues --    -6.57058  -0.45394  -0.30798  -0.30798  -0.10026
   1 1   B  1S          0.98989   0.24022   0.00000  -0.00000  -0.00000
   2        2S         -0.03941   0.47979   0.00000  -0.00000  -0.00000
   3        3S          0.02136   0.16598   0.00000   0.00000  -0.00000
   4        4PX         0.00000   0.00000   0.41935   0.00000   0.00000
   5        4PY        -0.00000   0.00000   0.00000   0.41935  -0.00000
   6        4PZ        -0.00000  -0.00000   0.00000  -0.00000  -0.55959
   7        5PX         0.00000   0.00000  -0.12961   0.00000   0.00000
   8        5PY         0.00000  -0.00000   0.00000  -0.12961   0.00000
   9        5PZ         0.00000   0.00000   0.00000   0.00000   0.56041
  10        6D 0        0.00224  -0.00428   0.00000  -0.00000  -0.00000
  11        6D+1        0.00000   0.00000  -0.00000   0.00000   0.00000
  12        6D-1       -0.00000   0.00000   0.00000  -0.00000  -0.00000
  13        6D+2        0.00000   0.00000   0.00000   0.01874   0.00000
  14        6D-2        0.00000   0.00000   0.01874   0.00000   0.00000
  15 2   H  1S          0.00374   0.21137   0.00000  -0.37420   0.00000
  16        2S         -0.00412   0.04907   0.00000  -0.17521   0.00000
  17        3PX         0.00000   0.00000  -0.00839   0.00000   0.00000
  18        3PY        -0.00026  -0.01986   0.00000   0.01120  -0.00000
  19        3PZ        -0.00000  -0.00000   0.00000   0.00000   0.02258
  20 3   H  1S          0.00374   0.21137   0.32407   0.18710   0.00000
  21        2S         -0.00412   0.04907   0.15174   0.08760   0.00000
  22        3PX         0.00022   0.01720   0.00630   0.00848   0.00000
  23        3PY         0.00013   0.00993   0.00848  -0.00349   0.00000
  24        3PZ        -0.00000  -0.00000  -0.00000  -0.00000   0.02258
  25 4   H  1S          0.00374   0.21137  -0.32407   0.18710   0.00000
  26        2S         -0.00412   0.04907  -0.15174   0.08760   0.00000
  27        3PX        -0.00022  -0.01720   0.00630  -0.00848  -0.00000
  28        3PY         0.00013   0.00993  -0.00848  -0.00349   0.00000
  29        3PZ        -0.00000  -0.00000   0.00000  -0.00000   0.02258
                           6         7         8         9        10
                           V         V         V         V         V
     Eigenvalues --     0.12423   0.12423   0.12914   0.18249   0.23813
   1 1   B  1S          0.00000   0.00000   0.21259  -0.18033   0.00000
   2        2S          0.00000   0.00000   0.85670  -1.29724  -0.00000
   3        3S          0.00000   0.00000   2.83197   3.40746   0.00000
   4        4PX        -0.32535   0.00000   0.00000   0.00000   0.00000
   5        4PY         0.00000   0.32535  -0.00000  -0.00000   0.78575
   6        4PZ         0.00000  -0.00000  -0.00000  -0.00000   0.00000
   7        5PX         2.10376   0.00000   0.00000   0.00000   0.00000
   8        5PY         0.00000  -2.10376   0.00000   0.00000   1.05337
   9        5PZ         0.00000  -0.00000   0.00000   0.00000   0.00000
  10        6D 0        0.00000   0.00000   0.03530   0.03774   0.00000
  11        6D+1       -0.00000   0.00000   0.00000   0.00000   0.00000
  12        6D-1        0.00000   0.00000  -0.00000  -0.00000  -0.00000
  13        6D+2        0.00000  -0.05457   0.00000   0.00000   0.01325
  14        6D-2        0.05457   0.00000   0.00000   0.00000   0.00000
  15 2   H  1S          0.00000   0.16308  -0.12324  -0.17041  -0.26669
  16        2S          0.00000   2.23142  -1.50563  -0.78364   0.16673
  17        3PX         0.03449   0.00000   0.00000   0.00000   0.00000
  18        3PY         0.00000   0.01280  -0.01756   0.01204   0.04160
  19        3PZ         0.00000   0.00000   0.00000   0.00000   0.00000
  20 3   H  1S          0.14123  -0.08154  -0.12324  -0.17041   0.13334
  21        2S          1.93247  -1.11571  -1.50563  -0.78364  -0.08336
  22        3PX        -0.00097   0.02048   0.01521  -0.01042   0.01732
  23        3PY        -0.02048  -0.02267   0.00878  -0.00602   0.01160
  24        3PZ         0.00000  -0.00000   0.00000   0.00000  -0.00000
  25 4   H  1S         -0.14123  -0.08154  -0.12324  -0.17041   0.13334
  26        2S         -1.93247  -1.11571  -1.50563  -0.78364  -0.08336
  27        3PX        -0.00097  -0.02048  -0.01521   0.01042  -0.01732
  28        3PY         0.02048  -0.02267   0.00878  -0.00602   0.01160
  29        3PZ        -0.00000  -0.00000   0.00000   0.00000  -0.00000
                          11        12        13        14        15
                           V      (A1)--V      V         V         V
     Eigenvalues --     0.23813   0.30726   0.61357   0.61357   0.62077
   1 1   B  1S          0.00000   0.00000  -0.00000   0.00000  -0.17230
   2        2S          0.00000   0.00000  -0.00000   0.00000  -0.75796
   3        3S          0.00000  -0.00000   0.00000   0.00000   3.86854
   4        4PX         0.78575   0.00000   0.00000   0.63309   0.00000
   5        4PY         0.00000   0.00000  -0.63309   0.00000   0.00000
   6        4PZ         0.00000   1.03862   0.00000   0.00000   0.00000
   7        5PX         1.05337   0.00000   0.00000   1.72018   0.00000
   8        5PY         0.00000  -0.00000  -1.72018   0.00000   0.00000
   9        5PZ         0.00000   1.05503   0.00000   0.00000   0.00000
  10        6D 0        0.00000   0.00000  -0.00000   0.00000  -0.25729
  11        6D+1       -0.00000   0.00000   0.00000   0.00000   0.00000
  12        6D-1        0.00000  -0.00000  -0.00000   0.00000   0.00000
  13        6D+2        0.00000  -0.00000   0.35352   0.00000  -0.00000
  14        6D-2        0.01325   0.00000   0.00000  -0.35352   0.00000
  15 2   H  1S          0.00000  -0.00000  -0.89025   0.00000   0.73838
  16        2S          0.00000   0.00000   2.33938   0.00000  -1.88737
  17        3PX         0.00160   0.00000   0.00000  -0.05533   0.00000
  18        3PY         0.00000   0.00000  -0.11927   0.00000   0.07558
  19        3PZ         0.00000  -0.01973  -0.00000   0.00000  -0.00000
  20 3   H  1S          0.23096  -0.00000   0.44513  -0.77098   0.73838
  21        2S         -0.14439   0.00000  -1.16969   2.02597  -1.88737
  22        3PX         0.03160  -0.00000  -0.07560   0.07562  -0.06545
  23        3PY         0.01732  -0.00000   0.01168   0.07560  -0.03779
  24        3PZ        -0.00000  -0.01973   0.00000  -0.00000  -0.00000
  25 4   H  1S         -0.23096  -0.00000   0.44513   0.77098   0.73838
  26        2S          0.14439   0.00000  -1.16969  -2.02597  -1.88737
  27        3PX         0.03160   0.00000   0.07560   0.07562   0.06545
  28        3PY        -0.01732  -0.00000   0.01168  -0.07560  -0.03779
  29        3PZ         0.00000  -0.01973   0.00000   0.00000  -0.00000
                          16        17        18        19        20
                           V         V         V         V         V
     Eigenvalues --     0.87223   0.87223   1.22932   1.22932   1.25087
   1 1   B  1S          0.00000   0.00000   0.00000  -0.00000  -0.05214
   2        2S          0.00000   0.00000   0.00000  -0.00000  -0.09433
   3        3S         -0.00000   0.00000   0.00000  -0.00000  -0.28541
   4        4PX         0.00000   0.00000   0.29670   0.00000   0.00000
   5        4PY         0.00000   0.00000   0.00000   0.29670  -0.00000
   6        4PZ         0.00000   0.00000   0.00000   0.00000   0.00000
   7        5PX         0.00000  -0.00000  -0.48174   0.00000   0.00000
   8        5PY        -0.00000   0.00000   0.00000  -0.48174   0.00000
   9        5PZ        -0.00000   0.00000   0.00000   0.00000  -0.00000
  10        6D 0       -0.00000   0.00000   0.00000   0.00000   1.03881
  11        6D+1        0.00000   0.77990  -0.00000   0.00000   0.00000
  12        6D-1        0.77990   0.00000   0.00000  -0.00000   0.00000
  13        6D+2        0.00000   0.00000   0.00000   0.72041  -0.00000
  14        6D-2        0.00000   0.00000   0.72041   0.00000   0.00000
  15 2   H  1S          0.00000   0.00000   0.00000   0.73683   0.46873
  16        2S          0.00000   0.00000   0.00000  -0.04630  -0.08194
  17        3PX         0.00000   0.00000   0.38067   0.00000   0.00000
  18        3PY        -0.00000   0.00000   0.00000   0.18260   0.09148
  19        3PZ         0.29836   0.00000   0.00000  -0.00000   0.00000
  20 3   H  1S         -0.00000  -0.00000  -0.63811  -0.36841   0.46873
  21        2S         -0.00000  -0.00000   0.04010   0.02315  -0.08194
  22        3PX        -0.00000   0.00000   0.23212  -0.08577  -0.07922
  23        3PY         0.00000  -0.00000  -0.08577   0.33115  -0.04574
  24        3PZ        -0.14918  -0.25838   0.00000   0.00000   0.00000
  25 4   H  1S         -0.00000   0.00000   0.63811  -0.36841   0.46873
  26        2S         -0.00000   0.00000  -0.04010   0.02315  -0.08194
  27        3PX         0.00000   0.00000   0.23212   0.08577   0.07922
  28        3PY         0.00000   0.00000   0.08577   0.33115  -0.04574
  29        3PZ        -0.14918   0.25838  -0.00000   0.00000   0.00000
                          21        22        23        24        25
                           V      (A1)--V      V         V         V
     Eigenvalues --     1.36524   1.57406   1.77454   1.77454   1.97669
   1 1   B  1S          0.00000   0.00000   0.00000   0.00000   0.00000
   2        2S          0.00000   0.00000   0.00000   0.00000   0.00000
   3        3S          0.00000  -0.00000   0.00000  -0.00000   0.00000
   4        4PX         0.00000   0.00000   0.00000   0.00000   0.00000
   5        4PY         0.00000   0.00000   0.00000  -0.00000   0.47441
   6        4PZ         0.00000   0.30498   0.00000   0.00000   0.00000
   7        5PX        -0.00000   0.00000  -0.00000   0.00000   0.00000
   8        5PY         0.00000   0.00000   0.00000   0.00000  -0.53747
   9        5PZ         0.00000  -0.21064   0.00000  -0.00000   0.00000
  10        6D 0        0.00000  -0.00000   0.00000  -0.00000  -0.00000
  11        6D+1       -0.00000   0.00000   0.80700   0.00000   0.00000
  12        6D-1        0.00000   0.00000   0.00000  -0.80700  -0.00000
  13        6D+2        0.00000  -0.00000   0.00000   0.00000  -0.56206
  14        6D-2        0.00000   0.00000  -0.00000   0.00000   0.00000
  15 2   H  1S          0.00000  -0.00000   0.00000   0.00000  -0.14549
  16        2S          0.00000   0.00000   0.00000  -0.00000   0.75294
  17        3PX         0.58126   0.00000   0.00000   0.00000   0.00000
  18        3PY         0.00000  -0.00000   0.00000   0.00000  -0.42772
  19        3PZ         0.00000   0.62382   0.00000   0.86729   0.00000
  20 3   H  1S         -0.00000  -0.00000   0.00000  -0.00000   0.07274
  21        2S         -0.00000   0.00000  -0.00000   0.00000  -0.37647
  22        3PX        -0.29063   0.00000   0.00000   0.00000  -0.54303
  23        3PY         0.50339   0.00000  -0.00000  -0.00000   0.51284
  24        3PZ        -0.00000   0.62382   0.75110  -0.43365  -0.00000
  25 4   H  1S          0.00000  -0.00000  -0.00000  -0.00000   0.07274
  26        2S          0.00000   0.00000   0.00000   0.00000  -0.37647
  27        3PX        -0.29063  -0.00000   0.00000  -0.00000   0.54303
  28        3PY        -0.50339   0.00000   0.00000  -0.00000   0.51284
  29        3PZ         0.00000   0.62382  -0.75110  -0.43365  -0.00000
                          26        27        28        29
                           V         V         V         V
     Eigenvalues --     1.97669   2.36738   2.51391   2.51391
   1 1   B  1S          0.00000   0.25754   0.00000   0.00000
   2        2S          0.00000   1.80735   0.00000   0.00000
   3        3S          0.00000   0.73367   0.00000   0.00000
   4        4PX         0.47441   0.00000   1.41204   0.00000
   5        4PY         0.00000  -0.00000   0.00000   1.41204
   6        4PZ         0.00000  -0.00000   0.00000  -0.00000
   7        5PX        -0.53747   0.00000  -0.17103   0.00000
   8        5PY         0.00000   0.00000   0.00000  -0.17103
   9        5PZ         0.00000   0.00000   0.00000   0.00000
  10        6D 0        0.00000  -0.80453   0.00000  -0.00000
  11        6D+1       -0.00000   0.00000  -0.00000   0.00000
  12        6D-1        0.00000   0.00000   0.00000  -0.00000
  13        6D+2        0.00000  -0.00000   0.00000   1.39811
  14        6D-2       -0.56206   0.00000   1.39811   0.00000
  15 2   H  1S          0.00000  -0.55010   0.00000   1.12908
  16        2S          0.00000  -0.52124   0.00000   0.30972
  17        3PX         0.82636   0.00000  -0.38235   0.00000
  18        3PY         0.00000   0.87733   0.00000  -1.22649
  19        3PZ         0.00000   0.00000   0.00000  -0.00000
  20 3   H  1S          0.12599  -0.55010  -0.97781  -0.56454
  21        2S         -0.65207  -0.52124  -0.26822  -0.15486
  22        3PX        -0.11420  -0.75979  -1.01545  -0.36552
  23        3PY        -0.54303  -0.43867  -0.36552  -0.59338
  24        3PZ        -0.00000   0.00000   0.00000   0.00000
  25 4   H  1S         -0.12599  -0.55010   0.97781  -0.56454
  26        2S          0.65207  -0.52124   0.26822  -0.15486
  27        3PX        -0.11420   0.75979  -1.01545   0.36552
  28        3PY         0.54303  -0.43867   0.36552  -0.59338
  29        3PZ         0.00000   0.00000  -0.00000   0.00000
          Condensed to atoms (all electrons):
               1          2          3          4
     1  B    3.727282   0.413315   0.413315   0.413315
     2  H    0.413315   0.644836  -0.023613  -0.023613
     3  H    0.413315  -0.023613   0.644836  -0.023613
     4  H    0.413315  -0.023613  -0.023613   0.644836
 Mulliken charges:
               1
     1  B    0.032774
     2  H   -0.010925
     3  H   -0.010925
     4  H   -0.010925
 Sum of Mulliken charges =  -0.00000
 Mulliken charges with hydrogens summed into heavy atoms:
               1
     1  B   -0.000000
 Electronic spatial extent (au):  <R**2>=             34.7553
 Charge=              0.0000 electrons
 Dipole moment (field-independent basis, Debye):
    X=             -0.0000    Y=              0.0000    Z=             -0.0000  Tot=              0.0000
 Quadrupole moment (field-independent basis, Debye-Ang):
   XX=             -9.2033   YY=             -9.2033   ZZ=             -7.1580
   XY=              0.0000   XZ=              0.0000   YZ=             -0.0000
 Traceless Quadrupole moment (field-independent basis, Debye-Ang):
   XX=             -0.6818   YY=             -0.6818   ZZ=              1.3635
   XY=              0.0000   XZ=              0.0000   YZ=             -0.0000
 Octapole moment (field-independent basis, Debye-Ang**2):
  XXX=             -0.0000  YYY=              0.2291  ZZZ=             -0.0000  XYY=             -0.0000
  XXY=             -0.2291  XXZ=              0.0000  XZZ=             -0.0000  YZZ=              0.0000
  YYZ=              0.0000  XYZ=              0.0000
 Hexadecapole moment (field-independent basis, Debye-Ang**3):
 XXXX=            -23.7821 YYYY=            -23.7821 ZZZZ=             -7.2657 XXXY=              0.0000
 XXXZ=             -0.0000 YYYX=              0.0000 YYYZ=              0.0000 ZZZX=             -0.0000
 ZZZY=              0.0000 XXYY=             -7.9274 XXZZ=             -5.4581 YYZZ=             -5.4581
 XXYZ=             -0.0000 YYXZ=             -0.0000 ZZXY=             -0.0000
 N-N= 7.300041611461D+00 E-N=-7.492860138779D+01  KE= 2.613940636506D+01
 Symmetry A'   KE= 2.473254989359D+01
 Symmetry A"   KE= 1.406856471469D+00
 Orbital energies and kinetic energies (alpha):
                                 1                 2
   1         O                -6.570581         10.733139
   2         O                -0.453943          0.929708
   3         O                -0.307977          0.703428
   4         O                -0.307977          0.703428
   5         (A1)--V          -0.100258          0.633382
   6         V                 0.124227          0.540665
   7         V                 0.124227          0.540665
   8         V                 0.129142          0.976107
   9         V                 0.182491          0.764355
  10         V                 0.238133          0.918667
  11         V                 0.238133          0.918667
  12         (A1)--V           0.307263          1.232537
  13         V                 0.613567          1.643586
  14         V                 0.613567          1.643586
  15         V                 0.620765          1.781809
  16         V                 0.872226          1.632017
  17         V                 0.872226          1.632017
  18         V                 1.229324          2.144183
  19         V                 1.229324          2.144183
  20         V                 1.250874          2.121153
  21         V                 1.365235          2.059121
  22         (A1)--V           1.574061          2.310097
  23         V                 1.774543          2.500824
  24         V                 1.774543          2.500824
  25         V                 1.976687          2.804178
  26         V                 1.976687          2.804178
  27         V                 2.367381          3.746934
  28         V                 2.513910          3.947307
  29         V                 2.513910          3.947307
 Total kinetic energy from orbitals= 2.613940636506D+01
 No NMR shielding tensors so no spin-rotation constants.
 Leave Link  601 at Wed Jan 24 15:01:17 2018, MaxMem=   536870912 cpu:         0.2
 (Enter /home/chemsoft/gaussian/g09e01/g09/l9999.exe)

 Test job not archived.
 1\1\GINC-LENOX07\FOpt\RB97D3\def2SVP/W06\B1H3\MARTIN\24-Jan-2018\0\\#P
  B97d3/def2SVP/W06 DenFit opt(MaxCycle=100 MaxStep=10 VeryTight NoEige
 nTest) scf(xqc MaxConventionalCycle = 500) int(ultrafinegrid) gfinput 
 gfoldprint iop(6/7=3) symmetry(loose)\\Borane DF-BP86/def2-SVP\\0,1\B,
 -0.0000000001,0.,0.2282588263\H,-1.2124447901,-0.0000000003,0.22825817
 77\H,0.6062223946,1.050007989,0.2282581777\H,0.6062223952,-1.050007988
 7,0.2282581777\\Version=ES64L-G09RevE.01\HF=-26.5723073\RMSD=3.240e-09
 \RMSF=1.519e-07\Dipole=0.,0.,0.0000005\Quadrupole=-0.5068751,-0.506875
 1,1.0137501,0.,0.,0.\PG=C03V [C3(B1),3SGV(H1)]\\@


 ABALONE: AN EXPRESSION OF DISBELIEF.
 Job cpu time:       0 days  0 hours  1 minutes  2.5 seconds.
 File lengths (MBytes):  RWF=      5 Int=      0 D2E=      0 Chk=      1 Scr=      1
 Normal termination of Gaussian 09 at Wed Jan 24 15:01:17 2018.
