 Entering Gaussian System, Link 0=g09
 Input=borane.df-pbesvp.nbo6.com
 Output=borane.df-pbesvp.nbo6.log
 Initial command:
 /home/chemsoft/gaussian/g09e01/g09/l1.exe "/scr/martin/g09job.inter1516779857/Gau-27995.inp" -scrdir="/scr/martin/g09job.inter1516779857/"
 Entering Link 1 = /home/chemsoft/gaussian/g09e01/g09/l1.exe PID=     27996.
  
 Copyright (c) 1988,1990,1992,1993,1995,1998,2003,2009,2015,
            Gaussian, Inc.  All Rights Reserved.
  
 This is part of the Gaussian(R) 09 program.  It is based on
 the Gaussian(R) 03 system (copyright 2003, Gaussian, Inc.),
 the Gaussian(R) 98 system (copyright 1998, Gaussian, Inc.),
 the Gaussian(R) 94 system (copyright 1995, Gaussian, Inc.),
 the Gaussian 92(TM) system (copyright 1992, Gaussian, Inc.),
 the Gaussian 90(TM) system (copyright 1990, Gaussian, Inc.),
 the Gaussian 88(TM) system (copyright 1988, Gaussian, Inc.),
 the Gaussian 86(TM) system (copyright 1986, Carnegie Mellon
 University), and the Gaussian 82(TM) system (copyright 1983,
 Carnegie Mellon University). Gaussian is a federally registered
 trademark of Gaussian, Inc.
  
 This software contains proprietary and confidential information,
 including trade secrets, belonging to Gaussian, Inc.
  
 This software is provided under written license and may be
 used, copied, transmitted, or stored only in accord with that
 written license.
  
 The following legend is applicable only to US Government
 contracts under FAR:
  
                    RESTRICTED RIGHTS LEGEND
  
 Use, reproduction and disclosure by the US Government is
 subject to restrictions as set forth in subparagraphs (a)
 and (c) of the Commercial Computer Software - Restricted
 Rights clause in FAR 52.227-19.
  
 Gaussian, Inc.
 340 Quinnipiac St., Bldg. 40, Wallingford CT 06492
  
  
 ---------------------------------------------------------------
 Warning -- This program may not be used in any manner that
 competes with the business of Gaussian, Inc. or will provide
 assistance to any competitor of Gaussian, Inc.  The licensee
 of this program is prohibited from giving any competitor of
 Gaussian, Inc. access to this program.  By using this program,
 the user acknowledges that Gaussian, Inc. is engaged in the
 business of creating and licensing software in the field of
 computational chemistry and represents and warrants to the
 licensee that it is not a competitor of Gaussian, Inc. and that
 it will not use this program in any manner prohibited above.
 ---------------------------------------------------------------
  

 Cite this work as:
 Gaussian 09, Revision E.01,
 M. J. Frisch, G. W. Trucks, H. B. Schlegel, G. E. Scuseria, 
 M. A. Robb, J. R. Cheeseman, G. Scalmani, V. Barone, B. Mennucci, 
 G. A. Petersson, H. Nakatsuji, M. Caricato, X. Li, H. P. Hratchian, 
 A. F. Izmaylov, J. Bloino, G. Zheng, J. L. Sonnenberg, M. Hada, 
 M. Ehara, K. Toyota, R. Fukuda, J. Hasegawa, M. Ishida, T. Nakajima, 
 Y. Honda, O. Kitao, H. Nakai, T. Vreven, J. A. Montgomery, Jr., 
 J. E. Peralta, F. Ogliaro, M. Bearpark, J. J. Heyd, E. Brothers, 
 K. N. Kudin, V. N. Staroverov, T. Keith, R. Kobayashi, J. Normand, 
 K. Raghavachari, A. Rendell, J. C. Burant, S. S. Iyengar, J. Tomasi, 
 M. Cossi, N. Rega, J. M. Millam, M. Klene, J. E. Knox, J. B. Cross, 
 V. Bakken, C. Adamo, J. Jaramillo, R. Gomperts, R. E. Stratmann, 
 O. Yazyev, A. J. Austin, R. Cammi, C. Pomelli, J. W. Ochterski, 
 R. L. Martin, K. Morokuma, V. G. Zakrzewski, G. A. Voth, 
 P. Salvador, J. J. Dannenberg, S. Dapprich, A. D. Daniels, 
 O. Farkas, J. B. Foresman, J. V. Ortiz, J. Cioslowski, 
 and D. J. Fox, Gaussian, Inc., Wallingford CT, 2013.
 
 ******************************************
 Gaussian 09:  ES64L-G09RevE.01 30-Nov-2015
                24-Jan-2018 
 ******************************************
 %oldchk=borane.df-pbesvp.chk
 %chk=borane.df-pbesvp.nbo6.chk
 %NoSave
 Copying data from "borane.df-pbesvp.chk" to current chk file "borane.df-pbesvp.nbo6.chk".
 ----------------------------------------------------------------------
 #P PBEPBE/def2SVP/W06 DenFit scf(xqc,MaxConventionalCycle=500) int(ult
 rafinegrid) gfinput gfoldprint iop(6/7=3) symmetry(loose) geom(check) 
 guess(read,only) pop(nbo6read)
 ----------------------------------------------------------------------
 1/29=2,38=1,163=2/1;
 2/12=2,17=4,18=3,40=1/2;
 3/5=43,7=101,11=2,14=-4,16=1,24=11,25=1,30=1,74=1009,75=-5,82=40,89=1,116=-2/1,2,3;
 4/5=1/1;
 6/7=3,28=1,40=2,113=1,114=1,124=2103/1,12;
 99/5=2/99;
 Leave Link    1 at Wed Jan 24 16:44:17 2018, MaxMem=   536870912 cpu:         0.1
 (Enter /home/chemsoft/gaussian/g09e01/g09/l101.exe)
 -----------------------
 Borane DF-BP86/def2-SVP
 -----------------------
 Structure from the checkpoint file:  "borane.df-pbesvp.nbo6.chk"
 Charge =  0 Multiplicity = 1
 Redundant internal coordinates found in file.
 B,0,-0.0000000001,0.,0.2282558517
 H,0,-1.2143855491,-0.0000000003,0.2282552717
 H,0,0.6071927741,1.0516887356,0.2282552717
 H,0,0.6071927747,-1.0516887353,0.2282552717
 Recover connectivity data from disk.
 NAtoms=      4 NQM=        4 NQMF=       0 NMMI=      0 NMMIF=      0
                NMic=       0 NMicF=      0.
                    Isotopes and Nuclear Properties:
 (Nuclear quadrupole moments (NQMom) in fm**2, nuclear magnetic moments (NMagM)
  in nuclear magnetons)

  Atom         1           2           3           4
 IAtWgt=          11           1           1           1
 AtmWgt=  11.0093053   1.0078250   1.0078250   1.0078250
 NucSpn=           3           1           1           1
 AtZEff=  -2.7500000  -1.0000000  -1.0000000  -1.0000000
 NQMom=    4.0590000   0.0000000   0.0000000   0.0000000
 NMagM=    2.6886370   2.7928460   2.7928460   2.7928460
 AtZNuc=   5.0000000   1.0000000   1.0000000   1.0000000
 Leave Link  101 at Wed Jan 24 16:44:18 2018, MaxMem=   536870912 cpu:         0.2
 (Enter /home/chemsoft/gaussian/g09e01/g09/l202.exe)
                          Input orientation:                          
 ---------------------------------------------------------------------
 Center     Atomic      Atomic             Coordinates (Angstroms)
 Number     Number       Type             X           Y           Z
 ---------------------------------------------------------------------
      1          5           0       -0.000000    0.000000    0.228256
      2          1           0       -1.214386   -0.000000    0.228255
      3          1           0        0.607193    1.051689    0.228255
      4          1           0        0.607193   -1.051689    0.228255
 ---------------------------------------------------------------------
                    Distance matrix (angstroms):
                    1          2          3          4
     1  B    0.000000
     2  H    1.214386   0.000000
     3  H    1.214386   2.103377   0.000000
     4  H    1.214386   2.103377   2.103377   0.000000
 Stoichiometry    BH3
 Framework group  D3H[O(B),3C2(H)]
 Deg. of freedom     1
 Full point group                 D3H     NOp  12
 RotChk:  IX=2 Diff= 3.14D-16
 Largest Abelian subgroup         C2V     NOp   4
 Largest concise Abelian subgroup C2      NOp   2
                         Standard orientation:                         
 ---------------------------------------------------------------------
 Center     Atomic      Atomic             Coordinates (Angstroms)
 Number     Number       Type             X           Y           Z
 ---------------------------------------------------------------------
      1          5           0        0.000000    0.000000    0.000000
      2          1           0        0.000000    1.214386    0.000000
      3          1           0       -1.051689   -0.607193    0.000000
      4          1           0        1.051689   -0.607193    0.000000
 ---------------------------------------------------------------------
 Rotational constants (GHZ):    226.6875208    226.6875208    113.3437604
 Leave Link  202 at Wed Jan 24 16:44:18 2018, MaxMem=   536870912 cpu:         0.0
 (Enter /home/chemsoft/gaussian/g09e01/g09/l301.exe)
 Standard basis: def2SVP (5D, 7F)
 ======================================================================================================
                                       Pseudopotential Parameters
 ======================================================================================================
  Center     Atomic      Valence      Angular      Power
  Number     Number     Electrons     Momentum     of R      Exponent        Coefficient   SO-Coeffient
 ======================================================================================================
    1          5
                                   No pseudopotential on this center.
    2          1
                                   No pseudopotential on this center.
    3          1
                                   No pseudopotential on this center.
    4          1
                                   No pseudopotential on this center.
 ======================================================================================================
 Ernie: Thresh=  0.10000D-02 Tol=  0.10000D-05 Strict=F.
 AO basis set in the form of general basis input (Overlap normalization):
      1 0
 S   5 1.00       0.000000000000
      0.8393183009D+03 -0.5628883598D-02
      0.1262646484D+03 -0.4183279461D-01
      0.2862060076D+02 -0.1841748813D+00
      0.7879372271D+01 -0.4683965503D+00
      0.2408885717D+01 -0.4445793088D+00
 S   1 1.00       0.000000000000
      0.2510510904D+00  0.1000000000D+01
 S   1 1.00       0.000000000000
      0.8364886607D-01  0.1000000000D+01
 P   3 1.00       0.000000000000
      0.6033222362D+01 -0.5403250032D-01
      0.1249915787D+01 -0.3019403439D+00
      0.3387167635D+00 -0.7717079166D+00
 P   1 1.00       0.000000000000
      0.9641563235D-01  0.1000000000D+01
 D   1 1.00       0.000000000000
      0.5000000000D+00  0.1000000000D+01
 ****
      2 0
 S   3 1.00       0.000000000000
      0.1301070100D+02  0.3348548481D-01
      0.1962257200D+01  0.2347218709D+00
      0.4445379600D+00  0.8137702853D+00
 S   1 1.00       0.000000000000
      0.1219496200D+00  0.1000000000D+01
 P   1 1.00       0.000000000000
      0.8000000000D+00  0.1000000000D+01
 ****
      3 0
 S   3 1.00       0.000000000000
      0.1301070100D+02  0.3348548481D-01
      0.1962257200D+01  0.2347218709D+00
      0.4445379600D+00  0.8137702853D+00
 S   1 1.00       0.000000000000
      0.1219496200D+00  0.1000000000D+01
 P   1 1.00       0.000000000000
      0.8000000000D+00  0.1000000000D+01
 ****
      4 0
 S   3 1.00       0.000000000000
      0.1301070100D+02  0.3348548481D-01
      0.1962257200D+01  0.2347218709D+00
      0.4445379600D+00  0.8137702853D+00
 S   1 1.00       0.000000000000
      0.1219496200D+00  0.1000000000D+01
 P   1 1.00       0.000000000000
      0.8000000000D+00  0.1000000000D+01
 ****

 ***********************************************************************************************************************************
 *             ATOMIC CENTER             *        ATOMIC ORBITAL       *                     GAUSSIAN FUNCTIONS                    *
 ***********************************************************************************************************************************
 *                                       * FUNCTION    SHELL    SCALE  *                                                           *
 *    ATOM   X-COORD  Y-COORD  Z-COORD   *  NUMBER     TYPE     FACTOR *  EXPONENT    S-COEF      P-COEF      D-COEF      F-COEF   *
 ***********************************************************************************************************************************
 *     B      0.00000  0.00000  0.00000                                                                                            *
+                                                1   S           1.00                                                               
+                                                                      0.839318D+03-.625572D+000.000000D+000.000000D+000.000000D+00 
 *                                                                     0.126265D+03-.112302D+010.000000D+000.000000D+000.000000D+00*
 *                                                                     0.286206D+02-.162424D+010.000000D+000.000000D+000.000000D+00*
 *                                                                     0.787937D+01-.156997D+010.000000D+000.000000D+000.000000D+00*
 *                                                                     0.240889D+01-.612663D+000.000000D+000.000000D+000.000000D+00*
 *                                               2   S           1.00                                                              *
+                                                                      0.251051D+000.252774D+000.000000D+000.000000D+000.000000D+00 
 *                                               3   S           1.00                                                              *
+                                                                      0.836489D-010.110855D+000.000000D+000.000000D+000.000000D+00 
 *                                           4-  6   P           1.00                                                              *
+                                                                      0.603322D+010.000000D+00-.728252D+000.000000D+000.000000D+00 
 *                                                                     0.124992D+010.000000D+00-.568803D+000.000000D+000.000000D+00*
 *                                                                     0.338717D+000.000000D+00-.284242D+000.000000D+000.000000D+00*
 *                                           7-  9   P           1.00                                                              *
+                                                                      0.964156D-010.000000D+000.765816D-010.000000D+000.000000D+00 
 *                                          10- 14   D           1.00                                                              *
+                                                                      0.500000D+000.000000D+000.000000D+000.489336D+000.000000D+00 
 *---------------------------------------------------------------------------------------------------------------------------------*
 *     H      0.00000  2.29486  0.00000                                                                                            *
+                                               15   S           1.00                                                               
+                                                                      0.130107D+020.163490D+000.000000D+000.000000D+000.000000D+00 
 *                                                                     0.196226D+010.277352D+000.000000D+000.000000D+000.000000D+00*
 *                                                                     0.444538D+000.315750D+000.000000D+000.000000D+000.000000D+00*
 *                                              16   S           1.00                                                              *
+                                                                      0.121950D+000.147077D+000.000000D+000.000000D+000.000000D+00 
 *                                          17- 19   P           1.00                                                              *
+                                                                      0.800000D+000.000000D+000.107846D+010.000000D+000.000000D+00 
 *---------------------------------------------------------------------------------------------------------------------------------*
 *     H     -1.98740 -1.14743  0.00000                                                                                            *
+                                               20   S           1.00                                                               
+                                                                      0.130107D+020.163490D+000.000000D+000.000000D+000.000000D+00 
 *                                                                     0.196226D+010.277352D+000.000000D+000.000000D+000.000000D+00*
 *                                                                     0.444538D+000.315750D+000.000000D+000.000000D+000.000000D+00*
 *                                              21   S           1.00                                                              *
+                                                                      0.121950D+000.147077D+000.000000D+000.000000D+000.000000D+00 
 *                                          22- 24   P           1.00                                                              *
+                                                                      0.800000D+000.000000D+000.107846D+010.000000D+000.000000D+00 
 *---------------------------------------------------------------------------------------------------------------------------------*
 *     H      1.98740 -1.14743  0.00000                                                                                            *
+                                               25   S           1.00                                                               
+                                                                      0.130107D+020.163490D+000.000000D+000.000000D+000.000000D+00 
 *                                                                     0.196226D+010.277352D+000.000000D+000.000000D+000.000000D+00*
 *                                                                     0.444538D+000.315750D+000.000000D+000.000000D+000.000000D+00*
 *                                              26   S           1.00                                                              *
+                                                                      0.121950D+000.147077D+000.000000D+000.000000D+000.000000D+00 
 *                                          27- 29   P           1.00                                                              *
+                                                                      0.800000D+000.000000D+000.107846D+010.000000D+000.000000D+00 
 ***********************************************************************************************************************************
 There are    15 symmetry adapted cartesian basis functions of A1  symmetry.
 There are     2 symmetry adapted cartesian basis functions of A2  symmetry.
 There are     8 symmetry adapted cartesian basis functions of B1  symmetry.
 There are     5 symmetry adapted cartesian basis functions of B2  symmetry.
 There are    14 symmetry adapted basis functions of A1  symmetry.
 There are     2 symmetry adapted basis functions of A2  symmetry.
 There are     8 symmetry adapted basis functions of B1  symmetry.
 There are     5 symmetry adapted basis functions of B2  symmetry.
    29 basis functions,    46 primitive gaussians,    30 cartesian basis functions
     4 alpha electrons        4 beta electrons
       nuclear repulsion energy         7.2911110870 Hartrees.
 IExCor= 1009 DFT=T Ex=PBE Corr=PBE ExCW=0 ScaHFX=  0.000000
 ScaDFX=  1.000000  1.000000  1.000000  1.000000 ScalE2=  1.000000  1.000000
 IRadAn=      5 IRanWt=     -1 IRanGd=            0 ICorTp=0 IEmpDi=  4
 NAtoms=    4 NActive=    4 NUniq=    2 SFac= 4.00D+00 NAtFMM=   60 NAOKFM=F Big=F
 Integral buffers will be    131072 words long.
 Raffenetti 2 integral format.
 Two-electron integral symmetry is turned on.
 Standard density basis: W06 (5D, 7F)
    82 Density fitting functions
 Density basis set in the form of general basis input (Coulomb normalization):
      1 0
 S   7 1.00       0.000000000000
      0.1322201672D+04  0.1533845092D-02
      0.4582370653D+03  0.5602018072D-02
      0.1680023641D+03  0.3186812516D-01
      0.6495776900D+02  0.1195515625D+00
      0.2638718560D+02  0.3174086192D+00
      0.1121086110D+02  0.4163043412D+00
      0.4955446000D+01  0.1476518035D+00
 S   1 1.00       0.000000000000
      0.2265282500D+01 -0.1000000000D+01
 S   1 1.00       0.000000000000
      0.1063808600D+01  0.1000000000D+01
 S   1 1.00       0.000000000000
      0.5095187000D+00  0.1000000000D+01
 S   1 1.00       0.000000000000
      0.2469859000D+00  0.1000000000D+01
 S   1 1.00       0.000000000000
      0.1202089000D+00  0.1000000000D+01
 P   2 1.00       0.000000000000
      0.9356073600D+01 -0.4402070956D+00
      0.3974313100D+01 -0.5918247809D+00
 P   1 1.00       0.000000000000
      0.1664514700D+01  0.1000000000D+01
 P   1 1.00       0.000000000000
      0.6913035000D+00 -0.1000000000D+01
 P   1 1.00       0.000000000000
      0.2863135000D+00  0.1000000000D+01
 D   2 1.00       0.000000000000
      0.2112031300D+01  0.2593317607D+00
      0.7780769000D+00  0.7591984630D+00
 D   1 1.00       0.000000000000
      0.3277101000D+00  0.1000000000D+01
 D   1 1.00       0.000000000000
      0.1449465000D+00  0.1000000000D+01
 F   2 1.00       0.000000000000
      0.1058271800D+01  0.6309763349D+00
      0.4010000000D+00  0.4234377755D+00
 G   1 1.00       0.000000000000
      0.6514300000D+00 -0.1000000000D+01
 ****
      2 0
 S   3 1.00       0.000000000000
      0.1567529270D+02  0.3261158972D-01
      0.3606357800D+01  0.2298046837D+00
      0.1208001600D+01  0.7572083240D+00
 S   1 1.00       0.000000000000
      0.4726794000D+00  0.1000000000D+01
 S   1 1.00       0.000000000000
      0.2018100000D+00  0.1000000000D+01
 P   2 1.00       0.000000000000
      0.2028136500D+01  0.3618361986D+00
      0.5358730000D+00  0.7039303088D+00
 D   1 1.00       0.000000000000
      0.2216512400D+01  0.1000000000D+01
 ****
      3 0
 S   3 1.00       0.000000000000
      0.1567529270D+02  0.3261158972D-01
      0.3606357800D+01  0.2298046837D+00
      0.1208001600D+01  0.7572083240D+00
 S   1 1.00       0.000000000000
      0.4726794000D+00  0.1000000000D+01
 S   1 1.00       0.000000000000
      0.2018100000D+00  0.1000000000D+01
 P   2 1.00       0.000000000000
      0.2028136500D+01  0.3618361986D+00
      0.5358730000D+00  0.7039303088D+00
 D   1 1.00       0.000000000000
      0.2216512400D+01  0.1000000000D+01
 ****
      4 0
 S   3 1.00       0.000000000000
      0.1567529270D+02  0.3261158972D-01
      0.3606357800D+01  0.2298046837D+00
      0.1208001600D+01  0.7572083240D+00
 S   1 1.00       0.000000000000
      0.4726794000D+00  0.1000000000D+01
 S   1 1.00       0.000000000000
      0.2018100000D+00  0.1000000000D+01
 P   2 1.00       0.000000000000
      0.2028136500D+01  0.3618361986D+00
      0.5358730000D+00  0.7039303088D+00
 D   1 1.00       0.000000000000
      0.2216512400D+01  0.1000000000D+01
 ****

 There are    82 symmetry adapted density basis functions of A   symmetry.
 Leave Link  301 at Wed Jan 24 16:44:18 2018, MaxMem=   536870912 cpu:         0.1
 (Enter /home/chemsoft/gaussian/g09e01/g09/l302.exe)
 NPDir=0 NMtPBC=     1 NCelOv=     1 NCel=       1 NClECP=     1 NCelD=      1
         NCelK=      1 NCelE2=     1 NClLst=     1 CellRange=     0.0.
 One-electron integrals computed using PRISM.
 One-electron integral symmetry used in STVInt
  12 Symmetry operations used in ECPInt.
 ECPInt:  NShTT=     120 NPrTT=     400 LenC2=     121 LenP2D=     391.
 LDataN:  DoStor=T MaxTD1= 4 Len=   56
 NBasis=    29 RedAO= T EigKep=  2.88D-02  NBF=    14     2     8     5
 NBsUse=    29 1.00D-06 EigRej= -1.00D+00 NBFU=    14     2     8     5
 Precomputing XC quadrature grid using
 IXCGrd= 4 IRadAn=           5 IRanWt=          -1 IRanGd=           0 AccXCQ= 0.00D+00.
 Generated NRdTot=       0 NPtTot=           0 NUsed=           0 NTot=          32
 NSgBfM=    30    30    30    30    30 MxSgAt=     4 MxSgA2=     4.
 Leave Link  302 at Wed Jan 24 16:44:18 2018, MaxMem=   536870912 cpu:         0.3
 (Enter /home/chemsoft/gaussian/g09e01/g09/l303.exe)
 DipDrv:  MaxL=1.
 Leave Link  303 at Wed Jan 24 16:44:18 2018, MaxMem=   536870912 cpu:         0.0
 (Enter /home/chemsoft/gaussian/g09e01/g09/l401.exe)
 Initial guess from the checkpoint file:  "borane.df-pbesvp.nbo6.chk"
 B after Tr=     0.000000    0.000000    0.000000
         Rot=    1.000000   -0.000000   -0.000000   -0.000000 Ang=   0.00 deg.
 Guess basis will be translated and rotated to current coordinates.
 JPrj=2 DoOrth=T DoCkMO=T.
 Initial guess orbital symmetries:
       Occupied  (?A) (?A) (?B) (?B)
       Virtual   (A2") (?B) (?B) (?A) (?A) (?B) (?B) (A2") (?B)
                 (?B) (?A) (?C) (?C) (?B) (?B) (?A) (?A) (A2")
                 (?C) (?C) (?B) (?B) (?A) (?B) (?B)
 Leave Link  401 at Wed Jan 24 16:44:18 2018, MaxMem=   536870912 cpu:         0.2
 (Enter /home/chemsoft/gaussian/g09e01/g09/l601.exe)
 Copying SCF densities to generalized density rwf, IOpCl= 0 IROHF=0.

 **********************************************************************

            Population analysis using the SCF density.

 **********************************************************************

 Orbital symmetries:
       Occupied  (?A) (?A) (?B) (?B)
       Virtual   (A2") (?B) (?B) (?A) (?A) (?B) (?B) (A2") (?B)
                 (?B) (?A) (?C) (?C) (?B) (?B) (?A) (?A) (A2")
                 (?C) (?C) (?B) (?B) (?A) (?B) (?B)
 Unable to determine electronic state:  an orbital has unidentified symmetry.
 Alpha  occ. eigenvalues --   -6.54546  -0.45393  -0.30670  -0.30670
 Alpha virt. eigenvalues --   -0.11032   0.11933   0.11933   0.12425   0.17668
 Alpha virt. eigenvalues --    0.23193   0.23193   0.29002   0.60972   0.60972
 Alpha virt. eigenvalues --    0.61793   0.86972   0.86972   1.22889   1.22889
 Alpha virt. eigenvalues --    1.24708   1.36676   1.57347   1.77313   1.77313
 Alpha virt. eigenvalues --    1.97505   1.97505   2.36638   2.50904   2.50904
     Molecular Orbital Coefficients:
                           1         2         3         4         5
                           O         O         O         O     (A2")--V
     Eigenvalues --    -6.54546  -0.45393  -0.30670  -0.30670  -0.11032
   1 1   B  1S          0.98889   0.24284   0.00000   0.00000   0.00000
   2        2S         -0.04390   0.48575   0.00000   0.00000   0.00000
   3        3S          0.02368   0.17139   0.00000   0.00000   0.00000
   4        4PX         0.00000   0.00000   0.42473   0.00000   0.00000
   5        4PY         0.00000   0.00000   0.00000   0.42473   0.00000
   6        4PZ         0.00000   0.00000   0.00000   0.00000   0.57771
   7        5PX         0.00000   0.00000  -0.13613   0.00000   0.00000
   8        5PY         0.00000   0.00000   0.00000  -0.13613   0.00000
   9        5PZ         0.00000   0.00000   0.00000   0.00000  -0.54335
  10        6D 0        0.00255  -0.00316   0.00000  -0.00000   0.00000
  11        6D+1        0.00000   0.00000   0.00000   0.00000   0.00000
  12        6D-1        0.00000   0.00000   0.00000   0.00000  -0.00000
  13        6D+2       -0.00000   0.00000   0.00000   0.01766   0.00000
  14        6D-2        0.00000   0.00000   0.01766   0.00000   0.00000
  15 2   H  1S          0.00446   0.20624   0.00000  -0.36641   0.00000
  16        2S         -0.00445   0.04846   0.00000  -0.17436   0.00000
  17        3PX         0.00000   0.00000  -0.00810   0.00000   0.00000
  18        3PY        -0.00081  -0.01897   0.00000   0.01036   0.00000
  19        3PZ         0.00000   0.00000   0.00000   0.00000  -0.02116
  20 3   H  1S          0.00446   0.20624   0.31732   0.18321   0.00000
  21        2S         -0.00445   0.04846   0.15100   0.08718   0.00000
  22        3PX         0.00070   0.01642   0.00575   0.00800   0.00000
  23        3PY         0.00040   0.00948   0.00800  -0.00348   0.00000
  24        3PZ         0.00000   0.00000   0.00000   0.00000  -0.02116
  25 4   H  1S          0.00446   0.20624  -0.31732   0.18321   0.00000
  26        2S         -0.00445   0.04846  -0.15100   0.08718   0.00000
  27        3PX        -0.00070  -0.01642   0.00575  -0.00800   0.00000
  28        3PY         0.00040   0.00948  -0.00800  -0.00348   0.00000
  29        3PZ         0.00000   0.00000   0.00000   0.00000  -0.02116
                           6         7         8         9        10
                           V         V         V         V         V
     Eigenvalues --     0.11933   0.11933   0.12425   0.17668   0.23193
   1 1   B  1S          0.00000   0.00000   0.21677  -0.17772   0.00000
   2        2S          0.00000   0.00000   0.88449  -1.28520   0.00000
   3        3S          0.00000   0.00000   2.74539   3.49020   0.00000
   4        4PX         0.00000  -0.32253   0.00000   0.00000   0.79411
   5        4PY         0.32253   0.00000  -0.00000  -0.00000   0.00000
   6        4PZ         0.00000   0.00000   0.00000   0.00000   0.00000
   7        5PX         0.00000   2.10666   0.00000   0.00000   1.06554
   8        5PY        -2.10666   0.00000   0.00000   0.00000   0.00000
   9        5PZ         0.00000   0.00000   0.00000   0.00000   0.00000
  10        6D 0        0.00000   0.00000   0.03572   0.03607   0.00000
  11        6D+1        0.00000   0.00000   0.00000   0.00000   0.00000
  12        6D-1        0.00000   0.00000   0.00000   0.00000   0.00000
  13        6D+2       -0.05326   0.00000   0.00000  -0.00000   0.00000
  14        6D-2        0.00000   0.05326   0.00000   0.00000   0.01211
  15 2   H  1S          0.16194   0.00000  -0.11721  -0.17115   0.00000
  16        2S          2.23763   0.00000  -1.48737  -0.82723   0.00000
  17        3PX         0.00000   0.03289   0.00000   0.00000   0.00089
  18        3PY         0.01055   0.00000  -0.01561   0.01079   0.00000
  19        3PZ         0.00000   0.00000   0.00000   0.00000   0.00000
  20 3   H  1S         -0.08097   0.14024  -0.11721  -0.17115   0.22690
  21        2S         -1.11881   1.93784  -1.48737  -0.82723  -0.13146
  22        3PX         0.01881   0.00031   0.01352  -0.00935   0.02911
  23        3PY        -0.02203  -0.01881   0.00781  -0.00540   0.01630
  24        3PZ         0.00000   0.00000   0.00000   0.00000   0.00000
  25 4   H  1S         -0.08097  -0.14024  -0.11721  -0.17115  -0.22690
  26        2S         -1.11881  -1.93784  -1.48737  -0.82723   0.13146
  27        3PX        -0.01881   0.00031  -0.01352   0.00935   0.02911
  28        3PY        -0.02203   0.01881   0.00781  -0.00540  -0.01630
  29        3PZ         0.00000   0.00000   0.00000   0.00000   0.00000
                          11        12        13        14        15
                           V     (A2")--V      V         V         V
     Eigenvalues --     0.23193   0.29002   0.60972   0.60972   0.61793
   1 1   B  1S         -0.00000   0.00000  -0.00000   0.00000  -0.17139
   2        2S         -0.00000   0.00000  -0.00000   0.00000  -0.75174
   3        3S          0.00000   0.00000   0.00000   0.00000   3.83634
   4        4PX         0.00000   0.00000   0.00000   0.62743   0.00000
   5        4PY         0.79411   0.00000  -0.62743   0.00000   0.00000
   6        4PZ         0.00000   1.02988   0.00000   0.00000   0.00000
   7        5PX         0.00000   0.00000   0.00000   1.70327   0.00000
   8        5PY         1.06554   0.00000  -1.70327   0.00000   0.00000
   9        5PZ         0.00000   1.06376   0.00000   0.00000   0.00000
  10        6D 0       -0.00000   0.00000  -0.00000   0.00000  -0.26217
  11        6D+1        0.00000   0.00000   0.00000   0.00000   0.00000
  12        6D-1        0.00000   0.00000   0.00000   0.00000   0.00000
  13        6D+2        0.01211   0.00000   0.35492   0.00000  -0.00000
  14        6D-2        0.00000   0.00000   0.00000  -0.35492   0.00000
  15 2   H  1S         -0.26201   0.00000  -0.89362   0.00000   0.73791
  16        2S          0.15180   0.00000   2.32494   0.00000  -1.87501
  17        3PX         0.00000   0.00000   0.00000  -0.05523   0.00000
  18        3PY         0.03852   0.00000  -0.11794   0.00000   0.07524
  19        3PZ         0.00000  -0.01798   0.00000   0.00000   0.00000
  20 3   H  1S          0.13100   0.00000   0.44681  -0.77390   0.73791
  21        2S         -0.07590   0.00000  -1.16247   2.01346  -1.87501
  22        3PX         0.01630   0.00000  -0.07499   0.07465  -0.06516
  23        3PY         0.01030   0.00000   0.01194   0.07499  -0.03762
  24        3PZ         0.00000  -0.01798   0.00000   0.00000   0.00000
  25 4   H  1S          0.13100   0.00000   0.44681   0.77390   0.73791
  26        2S         -0.07590   0.00000  -1.16247  -2.01346  -1.87501
  27        3PX        -0.01630   0.00000   0.07499   0.07465   0.06516
  28        3PY         0.01030   0.00000   0.01194  -0.07499  -0.03762
  29        3PZ         0.00000  -0.01798   0.00000   0.00000   0.00000
                          16        17        18        19        20
                           V         V         V         V         V
     Eigenvalues --     0.86972   0.86972   1.22889   1.22889   1.24708
   1 1   B  1S          0.00000   0.00000   0.00000   0.00000  -0.05412
   2        2S          0.00000   0.00000   0.00000   0.00000  -0.10423
   3        3S          0.00000   0.00000   0.00000   0.00000  -0.27309
   4        4PX         0.00000   0.00000   0.00000   0.30038   0.00000
   5        4PY         0.00000   0.00000   0.30038   0.00000   0.00000
   6        4PZ         0.00000   0.00000   0.00000   0.00000   0.00000
   7        5PX         0.00000   0.00000   0.00000  -0.47873   0.00000
   8        5PY         0.00000   0.00000  -0.47873   0.00000  -0.00000
   9        5PZ         0.00000  -0.00000   0.00000   0.00000   0.00000
  10        6D 0        0.00000   0.00000  -0.00000   0.00000   1.03847
  11        6D+1        0.78316   0.00000   0.00000   0.00000   0.00000
  12        6D-1        0.00000   0.78316   0.00000   0.00000   0.00000
  13        6D+2        0.00000   0.00000   0.72315   0.00000   0.00000
  14        6D-2        0.00000   0.00000   0.00000   0.72315   0.00000
  15 2   H  1S          0.00000   0.00000   0.73877   0.00000   0.47133
  16        2S          0.00000   0.00000  -0.04670   0.00000  -0.08540
  17        3PX         0.00000   0.00000   0.00000   0.38027   0.00000
  18        3PY         0.00000   0.00000   0.17906   0.00000   0.09022
  19        3PZ         0.00000   0.29537   0.00000   0.00000   0.00000
  20 3   H  1S          0.00000   0.00000  -0.36938  -0.63979   0.47133
  21        2S          0.00000   0.00000   0.02335   0.04044  -0.08540
  22        3PX         0.00000   0.00000  -0.08712   0.22936  -0.07813
  23        3PY         0.00000   0.00000   0.32997  -0.08712  -0.04511
  24        3PZ        -0.25580  -0.14768   0.00000   0.00000   0.00000
  25 4   H  1S          0.00000   0.00000  -0.36938   0.63979   0.47133
  26        2S          0.00000   0.00000   0.02335  -0.04044  -0.08540
  27        3PX         0.00000   0.00000   0.08712   0.22936   0.07813
  28        3PY         0.00000   0.00000   0.32997   0.08712  -0.04511
  29        3PZ         0.25580  -0.14768   0.00000   0.00000   0.00000
                          21        22        23        24        25
                           V     (A2")--V      V         V         V
     Eigenvalues --     1.36676   1.57347   1.77313   1.77313   1.97505
   1 1   B  1S          0.00000   0.00000   0.00000   0.00000   0.00000
   2        2S          0.00000   0.00000   0.00000   0.00000   0.00000
   3        3S          0.00000   0.00000   0.00000   0.00000  -0.00000
   4        4PX        -0.00000   0.00000   0.00000   0.00000   0.00000
   5        4PY         0.00000   0.00000   0.00000   0.00000   0.46989
   6        4PZ         0.00000   0.29905   0.00000   0.00000   0.00000
   7        5PX        -0.00000   0.00000   0.00000   0.00000   0.00000
   8        5PY         0.00000   0.00000   0.00000   0.00000  -0.53637
   9        5PZ         0.00000  -0.21188  -0.00000   0.00000   0.00000
  10        6D 0        0.00000   0.00000   0.00000   0.00000  -0.00000
  11        6D+1        0.00000   0.00000   0.00000   0.80239   0.00000
  12        6D-1        0.00000   0.00000  -0.80239   0.00000   0.00000
  13        6D+2        0.00000   0.00000   0.00000   0.00000  -0.55917
  14        6D-2        0.00000   0.00000   0.00000   0.00000   0.00000
  15 2   H  1S          0.00000   0.00000   0.00000   0.00000  -0.14577
  16        2S          0.00000   0.00000   0.00000   0.00000   0.74961
  17        3PX         0.58119   0.00000   0.00000   0.00000   0.00000
  18        3PY         0.00000   0.00000   0.00000   0.00000  -0.42829
  19        3PZ         0.00000   0.62362   0.86740   0.00000   0.00000
  20 3   H  1S         -0.00000   0.00000   0.00000   0.00000   0.07289
  21        2S         -0.00000   0.00000   0.00000   0.00000  -0.37480
  22        3PX        -0.29060   0.00000   0.00000   0.00000  -0.54263
  23        3PY         0.50333   0.00000   0.00000   0.00000   0.51157
  24        3PZ         0.00000   0.62362  -0.43370   0.75119   0.00000
  25 4   H  1S          0.00000   0.00000   0.00000   0.00000   0.07289
  26        2S          0.00000   0.00000   0.00000   0.00000  -0.37480
  27        3PX        -0.29060   0.00000   0.00000   0.00000   0.54263
  28        3PY        -0.50333   0.00000   0.00000   0.00000   0.51157
  29        3PZ         0.00000   0.62362  -0.43370  -0.75119   0.00000
                          26        27        28        29
                           V         V         V         V
     Eigenvalues --     1.97505   2.36638   2.50904   2.50904
   1 1   B  1S          0.00000   0.25711  -0.00000   0.00000
   2        2S          0.00000   1.79086  -0.00000   0.00000
   3        3S          0.00000   0.73128  -0.00000   0.00000
   4        4PX         0.46989   0.00000   0.00000   1.40087
   5        4PY         0.00000   0.00000   1.40087   0.00000
   6        4PZ         0.00000   0.00000   0.00000   0.00000
   7        5PX        -0.53637   0.00000   0.00000  -0.17159
   8        5PY         0.00000   0.00000  -0.17159   0.00000
   9        5PZ         0.00000   0.00000   0.00000   0.00000
  10        6D 0        0.00000  -0.80068   0.00000   0.00000
  11        6D+1        0.00000   0.00000   0.00000   0.00000
  12        6D-1        0.00000   0.00000   0.00000   0.00000
  13        6D+2        0.00000   0.00000   1.39226   0.00000
  14        6D-2       -0.55917   0.00000   0.00000   1.39226
  15 2   H  1S          0.00000  -0.54530   1.12020   0.00000
  16        2S          0.00000  -0.51808   0.30843   0.00000
  17        3PX         0.82486   0.00000   0.00000  -0.38251
  18        3PY         0.00000   0.87589  -1.22455   0.00000
  19        3PZ         0.00000   0.00000   0.00000   0.00000
  20 3   H  1S          0.12624  -0.54530  -0.56010  -0.97012
  21        2S         -0.64918  -0.51808  -0.15422  -0.26711
  22        3PX        -0.11500  -0.75854  -0.36461  -1.01404
  23        3PY        -0.54263  -0.43794  -0.59302  -0.36461
  24        3PZ         0.00000   0.00000   0.00000   0.00000
  25 4   H  1S         -0.12624  -0.54530  -0.56010   0.97012
  26        2S          0.64918  -0.51808  -0.15422   0.26711
  27        3PX        -0.11500   0.75854   0.36461  -1.01404
  28        3PY         0.54263  -0.43794  -0.59302   0.36461
  29        3PZ         0.00000   0.00000   0.00000   0.00000
     Density Matrix:
                           1         2         3         4         5
   1 1   B  1S          2.07376
   2        2S          0.14910   0.47576
   3        3S          0.13007   0.16443   0.05987
   4        4PX         0.00000   0.00000   0.00000   0.36080
   5        4PY         0.00000   0.00000   0.00000   0.00000   0.36080
   6        4PZ         0.00000   0.00000   0.00000   0.00000   0.00000
   7        5PX         0.00000   0.00000   0.00000  -0.11564   0.00000
   8        5PY         0.00000   0.00000   0.00000   0.00000  -0.11564
   9        5PZ         0.00000   0.00000   0.00000   0.00000   0.00000
  10        6D 0        0.00351  -0.00329  -0.00096   0.00000  -0.00000
  11        6D+1        0.00000   0.00000   0.00000   0.00000   0.00000
  12        6D-1        0.00000   0.00000   0.00000   0.00000   0.00000
  13        6D+2        0.00000   0.00000   0.00000   0.00000   0.01500
  14        6D-2        0.00000   0.00000   0.00000   0.01500   0.00000
  15 2   H  1S          0.10898   0.19997   0.07091   0.00000  -0.31125
  16        2S          0.01474   0.04747   0.01640   0.00000  -0.14811
  17        3PX         0.00000   0.00000   0.00000  -0.00688   0.00000
  18        3PY        -0.01081  -0.01835  -0.00654   0.00000   0.00880
  19        3PZ         0.00000   0.00000   0.00000   0.00000   0.00000
  20 3   H  1S          0.10898   0.19997   0.07091   0.26955   0.15563
  21        2S          0.01474   0.04747   0.01640   0.12827   0.07406
  22        3PX         0.00936   0.01590   0.00566   0.00488   0.00679
  23        3PY         0.00541   0.00918   0.00327   0.00679  -0.00296
  24        3PZ         0.00000   0.00000   0.00000   0.00000   0.00000
  25 4   H  1S          0.10898   0.19997   0.07091  -0.26955   0.15563
  26        2S          0.01474   0.04747   0.01640  -0.12827   0.07406
  27        3PX        -0.00936  -0.01590  -0.00566   0.00488  -0.00679
  28        3PY         0.00541   0.00918   0.00327  -0.00679  -0.00296
  29        3PZ         0.00000   0.00000   0.00000   0.00000   0.00000
                           6         7         8         9        10
   6        4PZ         0.00000
   7        5PX         0.00000   0.03706
   8        5PY         0.00000   0.00000   0.03706
   9        5PZ         0.00000   0.00000   0.00000   0.00000
  10        6D 0        0.00000   0.00000   0.00000   0.00000   0.00003
  11        6D+1        0.00000   0.00000   0.00000   0.00000   0.00000
  12        6D-1        0.00000   0.00000   0.00000   0.00000   0.00000
  13        6D+2        0.00000   0.00000  -0.00481   0.00000  -0.00000
  14        6D-2        0.00000  -0.00481   0.00000   0.00000   0.00000
  15 2   H  1S          0.00000   0.00000   0.09976   0.00000  -0.00128
  16        2S          0.00000   0.00000   0.04747   0.00000  -0.00033
  17        3PX         0.00000   0.00221   0.00000   0.00000   0.00000
  18        3PY         0.00000   0.00000  -0.00282   0.00000   0.00012
  19        3PZ         0.00000   0.00000   0.00000   0.00000   0.00000
  20 3   H  1S          0.00000  -0.08639  -0.04988   0.00000  -0.00128
  21        2S          0.00000  -0.04111  -0.02374   0.00000  -0.00033
  22        3PX         0.00000  -0.00156  -0.00218   0.00000  -0.00010
  23        3PY         0.00000  -0.00218   0.00095   0.00000  -0.00006
  24        3PZ         0.00000   0.00000   0.00000   0.00000   0.00000
  25 4   H  1S          0.00000   0.08639  -0.04988   0.00000  -0.00128
  26        2S          0.00000   0.04111  -0.02374   0.00000  -0.00033
  27        3PX         0.00000  -0.00156   0.00218   0.00000   0.00010
  28        3PY         0.00000   0.00218   0.00095   0.00000  -0.00006
  29        3PZ         0.00000   0.00000   0.00000   0.00000   0.00000
                          11        12        13        14        15
  11        6D+1        0.00000
  12        6D-1        0.00000   0.00000
  13        6D+2        0.00000   0.00000   0.00062
  14        6D-2        0.00000   0.00000   0.00000   0.00062
  15 2   H  1S          0.00000   0.00000  -0.01294   0.00000   0.35362
  16        2S          0.00000   0.00000  -0.00616   0.00000   0.14772
  17        3PX         0.00000   0.00000   0.00000  -0.00029   0.00000
  18        3PY         0.00000   0.00000   0.00037   0.00000  -0.01543
  19        3PZ         0.00000   0.00000   0.00000   0.00000   0.00000
  20 3   H  1S          0.00000   0.00000   0.00647   0.01121  -0.04915
  21        2S          0.00000   0.00000   0.00308   0.00533  -0.04394
  22        3PX         0.00000   0.00000   0.00028   0.00020   0.00092
  23        3PY         0.00000   0.00000  -0.00012   0.00028   0.00647
  24        3PZ         0.00000   0.00000   0.00000   0.00000   0.00000
  25 4   H  1S          0.00000   0.00000   0.00647  -0.01121  -0.04915
  26        2S          0.00000   0.00000   0.00308  -0.00533  -0.04394
  27        3PX         0.00000   0.00000  -0.00028   0.00020  -0.00092
  28        3PY         0.00000   0.00000  -0.00012  -0.00028   0.00647
  29        3PZ         0.00000   0.00000   0.00000   0.00000   0.00000
                          16        17        18        19        20
  16        2S          0.06554
  17        3PX         0.00000   0.00013
  18        3PY        -0.00545   0.00000   0.00094
  19        3PZ         0.00000   0.00000   0.00000   0.00000
  20 3   H  1S         -0.04394  -0.00514  -0.00403   0.00000   0.35362
  21        2S         -0.02567  -0.00245  -0.00002   0.00000   0.14772
  22        3PX        -0.00120  -0.00009  -0.00046   0.00000   0.01336
  23        3PY         0.00213  -0.00013  -0.00043   0.00000   0.00771
  24        3PZ         0.00000   0.00000   0.00000   0.00000   0.00000
  25 4   H  1S         -0.04394   0.00514  -0.00403   0.00000  -0.04915
  26        2S         -0.02567   0.00245  -0.00002   0.00000  -0.04394
  27        3PX         0.00120  -0.00009   0.00046   0.00000  -0.00606
  28        3PY         0.00213   0.00013  -0.00043   0.00000  -0.00244
  29        3PZ         0.00000   0.00000   0.00000   0.00000   0.00000
                          21        22        23        24        25
  21        2S          0.06554
  22        3PX         0.00472   0.00073
  23        3PY         0.00272   0.00035   0.00033
  24        3PZ         0.00000   0.00000   0.00000   0.00000
  25 4   H  1S         -0.04394   0.00606  -0.00244   0.00000   0.35362
  26        2S         -0.02567   0.00124  -0.00211   0.00000   0.14772
  27        3PX        -0.00124  -0.00060  -0.00016   0.00000  -0.01336
  28        3PY        -0.00211   0.00016   0.00008   0.00000   0.00771
  29        3PZ         0.00000   0.00000   0.00000   0.00000   0.00000
                          26        27        28        29
  26        2S          0.06554
  27        3PX        -0.00472   0.00073
  28        3PY         0.00272  -0.00035   0.00033
  29        3PZ         0.00000   0.00000   0.00000   0.00000
    Full Mulliken population analysis:
                           1         2         3         4         5
   1 1   B  1S          2.07376
   2        2S         -0.04622   0.47576
   3        3S         -0.01902   0.13249   0.05987
   4        4PX         0.00000   0.00000   0.00000   0.36080
   5        4PY         0.00000   0.00000   0.00000   0.00000   0.36080
   6        4PZ         0.00000   0.00000   0.00000   0.00000   0.00000
   7        5PX         0.00000   0.00000   0.00000   0.06297   0.00000
   8        5PY         0.00000   0.00000   0.00000   0.00000   0.06297
   9        5PZ         0.00000   0.00000   0.00000   0.00000   0.00000
  10        6D 0        0.00000   0.00000   0.00000   0.00000   0.00000
  11        6D+1        0.00000   0.00000   0.00000   0.00000   0.00000
  12        6D-1        0.00000   0.00000   0.00000   0.00000   0.00000
  13        6D+2        0.00000   0.00000   0.00000   0.00000   0.00000
  14        6D-2        0.00000   0.00000   0.00000   0.00000   0.00000
  15 2   H  1S         -0.00499   0.07341   0.02766   0.00000   0.14033
  16        2S         -0.00151   0.02800   0.01230   0.00000   0.04680
  17        3PX         0.00000   0.00000   0.00000   0.00136   0.00000
  18        3PY        -0.00071   0.00518   0.00076   0.00000   0.00315
  19        3PZ         0.00000   0.00000   0.00000   0.00000   0.00000
  20 3   H  1S         -0.00499   0.07341   0.02766   0.10525   0.03508
  21        2S         -0.00151   0.02800   0.01230   0.03510   0.01170
  22        3PX        -0.00053   0.00389   0.00057   0.00107   0.00164
  23        3PY        -0.00018   0.00130   0.00019   0.00164   0.00018
  24        3PZ         0.00000   0.00000   0.00000   0.00000   0.00000
  25 4   H  1S         -0.00499   0.07341   0.02766   0.10525   0.03508
  26        2S         -0.00151   0.02800   0.01230   0.03510   0.01170
  27        3PX        -0.00053   0.00389   0.00057   0.00107   0.00164
  28        3PY        -0.00018   0.00130   0.00019   0.00164   0.00018
  29        3PZ         0.00000   0.00000   0.00000   0.00000   0.00000
                           6         7         8         9        10
   6        4PZ         0.00000
   7        5PX         0.00000   0.03706
   8        5PY         0.00000   0.00000   0.03706
   9        5PZ         0.00000   0.00000   0.00000   0.00000
  10        6D 0        0.00000   0.00000   0.00000   0.00000   0.00003
  11        6D+1        0.00000   0.00000   0.00000   0.00000   0.00000
  12        6D-1        0.00000   0.00000   0.00000   0.00000   0.00000
  13        6D+2        0.00000   0.00000   0.00000   0.00000   0.00000
  14        6D-2        0.00000   0.00000   0.00000   0.00000   0.00000
  15 2   H  1S          0.00000   0.00000   0.04753   0.00000   0.00026
  16        2S          0.00000   0.00000   0.02816   0.00000   0.00002
  17        3PX         0.00000   0.00042   0.00000   0.00000   0.00000
  18        3PY         0.00000   0.00000  -0.00005   0.00000   0.00002
  19        3PZ         0.00000   0.00000   0.00000   0.00000   0.00000
  20 3   H  1S          0.00000   0.03565   0.01188   0.00000   0.00026
  21        2S          0.00000   0.02112   0.00704   0.00000   0.00002
  22        3PX         0.00000  -0.00010   0.00016   0.00000   0.00001
  23        3PY         0.00000   0.00016   0.00014   0.00000   0.00000
  24        3PZ         0.00000   0.00000   0.00000   0.00000   0.00000
  25 4   H  1S          0.00000   0.03565   0.01188   0.00000   0.00026
  26        2S          0.00000   0.02112   0.00704   0.00000   0.00002
  27        3PX         0.00000  -0.00010   0.00016   0.00000   0.00001
  28        3PY         0.00000   0.00016   0.00014   0.00000   0.00000
  29        3PZ         0.00000   0.00000   0.00000   0.00000   0.00000
                          11        12        13        14        15
  11        6D+1        0.00000
  12        6D-1        0.00000   0.00000
  13        6D+2        0.00000   0.00000   0.00062
  14        6D-2        0.00000   0.00000   0.00000   0.00062
  15 2   H  1S          0.00000   0.00000   0.00449   0.00000   0.35362
  16        2S          0.00000   0.00000   0.00053   0.00000   0.10116
  17        3PX         0.00000   0.00000   0.00000  -0.00011   0.00000
  18        3PY         0.00000   0.00000   0.00008   0.00000   0.00000
  19        3PZ         0.00000   0.00000   0.00000   0.00000   0.00000
  20 3   H  1S          0.00000   0.00000   0.00112   0.00336  -0.00101
  21        2S          0.00000   0.00000   0.00013   0.00039  -0.00643
  22        3PX         0.00000   0.00000  -0.00002   0.00005   0.00001
  23        3PY         0.00000   0.00000  -0.00004  -0.00002   0.00012
  24        3PZ         0.00000   0.00000   0.00000   0.00000   0.00000
  25 4   H  1S          0.00000   0.00000   0.00112   0.00336  -0.00101
  26        2S          0.00000   0.00000   0.00013   0.00039  -0.00643
  27        3PX         0.00000   0.00000  -0.00002   0.00005   0.00001
  28        3PY         0.00000   0.00000  -0.00004  -0.00002   0.00012
  29        3PZ         0.00000   0.00000   0.00000   0.00000   0.00000
                          16        17        18        19        20
  16        2S          0.06554
  17        3PX         0.00000   0.00013
  18        3PY         0.00000   0.00000   0.00094
  19        3PZ         0.00000   0.00000   0.00000   0.00000
  20 3   H  1S         -0.00643   0.00005   0.00007   0.00000   0.35362
  21        2S         -0.00979   0.00012   0.00000   0.00000   0.10116
  22        3PX        -0.00006   0.00000   0.00000   0.00000   0.00000
  23        3PY         0.00018   0.00000   0.00001   0.00000   0.00000
  24        3PZ         0.00000   0.00000   0.00000   0.00000   0.00000
  25 4   H  1S         -0.00643   0.00005   0.00007   0.00000  -0.00101
  26        2S         -0.00979   0.00012   0.00000   0.00000  -0.00643
  27        3PX        -0.00006   0.00000   0.00000   0.00000   0.00013
  28        3PY         0.00018   0.00000   0.00001   0.00000   0.00000
  29        3PZ         0.00000   0.00000   0.00000   0.00000   0.00000
                          21        22        23        24        25
  21        2S          0.06554
  22        3PX         0.00000   0.00073
  23        3PY         0.00000   0.00000   0.00033
  24        3PZ         0.00000   0.00000   0.00000   0.00000
  25 4   H  1S         -0.00643   0.00013   0.00000   0.00000   0.35362
  26        2S         -0.00979   0.00012   0.00000   0.00000   0.10116
  27        3PX         0.00012   0.00001   0.00000   0.00000   0.00000
  28        3PY         0.00000   0.00000   0.00000   0.00000   0.00000
  29        3PZ         0.00000   0.00000   0.00000   0.00000   0.00000
                          26        27        28        29
  26        2S          0.06554
  27        3PX         0.00000   0.00073
  28        3PY         0.00000  -0.00000   0.00033
  29        3PZ         0.00000   0.00000   0.00000   0.00000
     Gross orbital populations:
                           1
   1 1   B  1S          1.98686
   2        2S          0.88180
   3        3S          0.29552
   4        4PX         0.71124
   5        4PY         0.71124
   6        4PZ         0.00000
   7        5PX         0.21414
   8        5PY         0.21414
   9        5PZ         0.00000
  10        6D 0        0.00090
  11        6D+1        0.00000
  12        6D-1        0.00000
  13        6D+2        0.00811
  14        6D-2        0.00811
  15 2   H  1S          0.72883
  16        2S          0.24877
  17        3PX         0.00217
  18        3PY         0.00955
  19        3PZ         0.00000
  20 3   H  1S          0.72883
  21        2S          0.24877
  22        3PX         0.00770
  23        3PY         0.00401
  24        3PZ         0.00000
  25 4   H  1S          0.72883
  26        2S          0.24877
  27        3PX         0.00770
  28        3PY         0.00401
  29        3PZ         0.00000
          Condensed to atoms (all electrons):
               1          2          3          4
     1  B    3.792788   0.413087   0.413087   0.413087
     2  H    0.413087   0.622553  -0.023161  -0.023161
     3  H    0.413087  -0.023161   0.622553  -0.023161
     4  H    0.413087  -0.023161  -0.023161   0.622553
 Mulliken charges:
               1
     1  B   -0.032048
     2  H    0.010683
     3  H    0.010683
     4  H    0.010683
 Sum of Mulliken charges =   0.00000
 Mulliken charges with hydrogens summed into heavy atoms:
               1
     1  B    0.000000
 Electronic spatial extent (au):  <R**2>=             34.8205
 Charge=              0.0000 electrons
 Dipole moment (field-independent basis, Debye):
    X=             -0.0000    Y=              0.0000    Z=              0.0000  Tot=              0.0000
 Quadrupole moment (field-independent basis, Debye-Ang):
   XX=             -9.1664   YY=             -9.1664   ZZ=             -7.2517
   XY=             -0.0000   XZ=              0.0000   YZ=              0.0000
 Traceless Quadrupole moment (field-independent basis, Debye-Ang):
   XX=             -0.6382   YY=             -0.6382   ZZ=              1.2765
   XY=             -0.0000   XZ=              0.0000   YZ=              0.0000
 Octapole moment (field-independent basis, Debye-Ang**2):
  XXX=              0.0000  YYY=              0.3397  ZZZ=              0.0000  XYY=             -0.0000
  XXY=             -0.3397  XXZ=              0.0000  XZZ=             -0.0000  YZZ=              0.0000
  YYZ=              0.0000  XYZ=              0.0000
 Hexadecapole moment (field-independent basis, Debye-Ang**3):
 XXXX=            -23.9037 YYYY=            -23.9037 ZZZZ=             -7.4555 XXXY=             -0.0000
 XXXZ=              0.0000 YYYX=             -0.0000 YYYZ=              0.0000 ZZZX=              0.0000
 ZZZY=              0.0000 XXYY=             -7.9679 XXZZ=             -5.5426 YYZZ=             -5.5426
 XXYZ=              0.0000 YYXZ=              0.0000 ZZXY=             -0.0000
 N-N= 7.291111087027D+00 E-N=-7.488334836872D+01  KE= 2.610245883597D+01
 Symmetry A1   KE= 2.470239146292D+01
 Symmetry A2   KE= 7.801571273012D-34
 Symmetry B1   KE= 1.400067373053D+00
 Symmetry B2   KE= 2.181697402651D-33
 Orbital energies and kinetic energies (alpha):
                                 1                 2
   1         O                -6.545462         10.713678
   2         O                -0.453926          0.937484
   3         O                -0.306697          0.700034
   4         O                -0.306697          0.700034
   5         (A2")--V         -0.110322          0.654821
   6         V                 0.119329          0.536884
   7         V                 0.119329          0.536884
   8         V                 0.124247          0.990195
   9         V                 0.176682          0.755134
  10         V                 0.231932          0.924927
  11         V                 0.231932          0.924927
  12         (A2")--V          0.290020          1.212377
  13         V                 0.609722          1.644342
  14         V                 0.609722          1.644342
  15         V                 0.617930          1.782389
  16         V                 0.869723          1.631932
  17         V                 0.869723          1.631932
  18         V                 1.228895          2.144951
  19         V                 1.228895          2.144951
  20         V                 1.247078          2.123882
  21         V                 1.366764          2.058298
  22         (A2")--V          1.573473          2.307000
  23         V                 1.773130          2.498987
  24         V                 1.773130          2.498987
  25         V                 1.975046          2.799851
  26         V                 1.975046          2.799851
  27         V                 2.366379          3.741865
  28         V                 2.509042          3.935828
  29         V                 2.509042          3.935828
 Total kinetic energy from orbitals= 2.610245883597D+01
 No NMR shielding tensors so no spin-rotation constants.
 Leave Link  601 at Wed Jan 24 16:44:18 2018, MaxMem=   536870912 cpu:         0.1
 (Enter /home/chemsoft/gaussian/g09e01/g09/l612.exe)
 Running external command "gaunbo6 R"
         input file       "/scr/martin/g09job.inter1516779857/Gau-27996.EIn"
         output file      "/scr/martin/g09job.inter1516779857/Gau-27996.EOu"
         message file     "/scr/martin/g09job.inter1516779857/Gau-27996.EMs"
         fchk file        "/scr/martin/g09job.inter1516779857/Gau-27996.EFC"
         mat. el file     "/scr/martin/g09job.inter1516779857/Gau-27996.EUF"

 Writing Wrt12E file "/scr/martin/g09job.inter1516779857/Gau-27996.EUF"
 Gaussian matrix elements                                         Version   1 NLab= 7 Len12L=8 Len4L=8
 Write GAUSSIAN SCALARS               from file   501 offset           0 to matrix element file.
 Write OVERLAP                        from file   514 offset           0 to matrix element file.
 Write CORE HAMILTONIAN ALPHA         from file   515 offset           0 to matrix element file.
 Write CORE HAMILTONIAN BETA          from file   515 offset         435 to matrix element file.
 Write KINETIC ENERGY                 from file   516 offset           0 to matrix element file.
 Write ORTHOGONAL BASIS               from file   685 offset           0 to matrix element file.
 Write DIPOLE INTEGRALS               from file   518 offset           0 to matrix element file.
 Array DIP VEL INTEGRALS               on  file    572 does not exist.
 Array R X DEL INTEGRALS               on  file    572 does not exist.
 Write ALPHA ORBITAL ENERGIES         from file     0 offset           0 to matrix element file.
 Write ALPHA MO COEFFICIENTS          from file 10524 offset           0 to matrix element file.
 Write ALPHA DENSITY MATRIX           from file     0 offset           0 to matrix element file.
 Write ALPHA SCF DENSITY MATRIX       from file 10528 offset           0 to matrix element file.
 Write ALPHA FOCK MATRIX              from file 10536 offset           0 to matrix element file.
 No 2e integrals to process.
 Perform NBO analysis...

 *********************************** NBO 6.0 ***********************************
             N A T U R A L   A T O M I C   O R B I T A L   A N D
          N A T U R A L   B O N D   O R B I T A L   A N A L Y S I S
 ***************************** development version *****************************
  (c) Copyright 1996-2016 Board of Regents of the University of Wisconsin System
      on behalf of the Theoretical Chemistry Institute.  All rights reserved.

          Cite this program as:

          NBO 6.0.  E. D. Glendening, J. K. Badenhoop, A. E. Reed,
          J. E. Carpenter, J. A. Bohmann, C. M. Morales, C. R. Landis,
          and F. Weinhold (Theoretical Chemistry Institute, University
          of Wisconsin, Madison, WI, 2013); http://nbo6.chem.wisc.edu/

       /ARCHIVE/ : Write the archive file to lfn47
       /FILE   / : Set to borane.df-pbesvp

 Filename set to borane.df-pbesvp

 Job title:  Borane DF-BP86/def2-SVP


 NATURAL POPULATIONS:  Natural atomic orbital occupancies

  NAO Atom No lang   Type(AO)    Occupancy      Energy
 -------------------------------------------------------
   1    B  1  s      Cor( 1s)     1.99999      -6.54470
   2    B  1  s      Val( 2s)     1.00494      -0.06862
   3    B  1  s      Ryd( 3s)     0.00000       0.21433
   4    B  1  px     Val( 2p)     0.85339       0.08816
   5    B  1  px     Ryd( 3p)     0.00000       0.24590
   6    B  1  py     Val( 2p)     0.85337       0.08825
   7    B  1  py     Ryd( 3p)     0.00000       0.24615
   8    B  1  pz     Val( 2p)     0.00000      -0.08882
   9    B  1  pz     Ryd( 3p)     0.00000       0.27144
  10    B  1  dxy    Ryd( 3d)     0.00075       1.63914
  11    B  1  dxz    Ryd( 3d)     0.00000       1.10496
  12    B  1  dyz    Ryd( 3d)     0.00000       1.11096
  13    B  1  dx2y2  Ryd( 3d)     0.00073       1.64267
  14    B  1  dz2    Ryd( 3d)     0.00037       1.33074

  15    H  2  s      Val( 1s)     1.09452      -0.02924
  16    H  2  s      Ryd( 2s)     0.00004       0.42032
  17    H  2  px     Ryd( 2p)     0.00002       1.63044
  18    H  2  py     Ryd( 2p)     0.00094       2.21371
  19    H  2  pz     Ryd( 2p)     0.00000       1.54274

  20    H  3  s      Val( 1s)     1.09453      -0.02922
  21    H  3  s      Ryd( 2s)     0.00004       0.42034
  22    H  3  px     Ryd( 2p)     0.00066       2.07895
  23    H  3  py     Ryd( 2p)     0.00023       1.78842
  24    H  3  pz     Ryd( 2p)     0.00000       1.54879

  25    H  4  s      Val( 1s)     1.09453      -0.02922
  26    H  4  s      Ryd( 2s)     0.00004       0.42034
  27    H  4  px     Ryd( 2p)     0.00066       2.07895
  28    H  4  py     Ryd( 2p)     0.00023       1.78842
  29    H  4  pz     Ryd( 2p)     0.00000       1.54879


 Summary of Natural Population Analysis:

                                     Natural Population
             Natural    ---------------------------------------------
  Atom No    Charge        Core      Valence    Rydberg      Total
 --------------------------------------------------------------------
    B  1    0.28647      1.99999     2.71170    0.00185     4.71353
    H  2   -0.09552      0.00000     1.09452    0.00100     1.09552
    H  3   -0.09547      0.00000     1.09453    0.00094     1.09547
    H  4   -0.09547      0.00000     1.09453    0.00094     1.09547
 ====================================================================
 * Total *  0.00000      1.99999     5.99528    0.00473     8.00000

                                 Natural Population
 ---------------------------------------------------------
   Core                       1.99999 ( 99.9993% of    2)
   Valence                    5.99528 ( 99.9213% of    6)
   Natural Minimal Basis      7.99527 ( 99.9408% of    8)
   Natural Rydberg Basis      0.00473 (  0.0592% of    8)
 ---------------------------------------------------------

    Atom No         Natural Electron Configuration
 ----------------------------------------------------------------------------
      B  1      [core]2s( 1.00)2p( 1.71)
      H  2            1s( 1.09)
      H  3            1s( 1.09)
      H  4            1s( 1.09)


 NATURAL BOND ORBITAL ANALYSIS:

                            Occupancies       Lewis Structure    Low   High
         Max    Occ     -------------------  -----------------   occ   occ
  Cycle  Ctr   Thresh    Lewis   non-Lewis     CR  BD  nC  LP    (L)   (NL)
 ============================================================================
    1     2     1.90     7.99196   0.00804      1   3   0   0     0      0
 ----------------------------------------------------------------------------

 Structure accepted: No low occupancy Lewis orbitals

 -------------------------------------------------------
   Core                      1.99999 ( 99.999% of   2)
   Valence Lewis             5.99198 ( 99.866% of   6)
  ==================      =============================
   Total Lewis               7.99196 ( 99.900% of   8)
  -----------------------------------------------------
   Valence non-Lewis         0.00767 (  0.096% of   8)
   Rydberg non-Lewis         0.00037 (  0.005% of   8)
  ==================      =============================
   Total non-Lewis           0.00804 (  0.100% of   8)
 -------------------------------------------------------


     (Occupancy)   Bond orbital / Coefficients / Hybrids
 ------------------ Lewis ------------------------------------------------------
   1. (1.99999) CR ( 1) B  1            s(100.00%)
                                         1.0000  0.0000  0.0000  0.0000  0.0000
                                         0.0000  0.0000  0.0000  0.0000  0.0000
                                         0.0000  0.0000  0.0000  0.0000
   2. (1.99732) BD ( 1) B  1- H  2
               ( 45.21%)   0.6724* B  1 s( 33.32%)p 2.00( 66.61%)d 0.00(  0.07%)
                                         0.0000  0.5773  0.0000  0.0000  0.0000
                                        -0.8161  0.0001  0.0000  0.0000  0.0000
                                         0.0000  0.0000 -0.0236 -0.0108
               ( 54.79%)   0.7402* H  2 s( 99.92%)p 0.00(  0.08%)
                                         0.9996 -0.0004  0.0000 -0.0289  0.0000
   3. (1.99733) BD ( 1) B  1- H  3
               ( 45.22%)   0.6724* B  1 s( 33.32%)p 2.00( 66.61%)d 0.00(  0.07%)
                                         0.0000  0.5772  0.0000  0.7068  0.0000
                                         0.4081  0.0000  0.0000  0.0000  0.0209
                                         0.0000  0.0000  0.0122 -0.0111
               ( 54.78%)   0.7402* H  3 s( 99.92%)p 0.00(  0.08%)
                                         0.9996 -0.0004  0.0241  0.0138  0.0000
   4. (1.99733) BD ( 1) B  1- H  4
               ( 45.22%)   0.6724* B  1 s( 33.32%)p 2.00( 66.61%)d 0.00(  0.07%)
                                         0.0000  0.5772  0.0000 -0.7068  0.0000
                                         0.4081  0.0000  0.0000  0.0000 -0.0209
                                         0.0000  0.0000  0.0122 -0.0111
               ( 54.78%)   0.7402* H  4 s( 99.92%)p 0.00(  0.08%)
                                         0.9996 -0.0004 -0.0241  0.0138  0.0000
 ---------------- non-Lewis ----------------------------------------------------
   5. (0.00000) LV ( 1) B  1            s(  0.00%)p 1.00(100.00%)
   6. (0.00256) BD*( 1) B  1- H  2
               ( 54.79%)   0.7402* B  1 s( 33.32%)p 2.00( 66.61%)d 0.00(  0.07%)
                                         0.0000 -0.5773  0.0000  0.0000  0.0000
                                         0.8161 -0.0001  0.0000  0.0000  0.0000
                                         0.0000  0.0000  0.0236  0.0108
               ( 45.21%)  -0.6724* H  2 s( 99.92%)p 0.00(  0.08%)
                                        -0.9996  0.0004  0.0000  0.0289  0.0000
   7. (0.00256) BD*( 1) B  1- H  3
               ( 54.78%)   0.7402* B  1 s( 33.32%)p 2.00( 66.61%)d 0.00(  0.07%)
                                         0.0000 -0.5772  0.0000 -0.7068  0.0000
                                        -0.4081  0.0000  0.0000  0.0000 -0.0209
                                         0.0000  0.0000 -0.0122  0.0111
               ( 45.22%)  -0.6724* H  3 s( 99.92%)p 0.00(  0.08%)
                                        -0.9996  0.0004 -0.0241 -0.0138  0.0000
   8. (0.00256) BD*( 1) B  1- H  4
               ( 54.78%)   0.7402* B  1 s( 33.32%)p 2.00( 66.61%)d 0.00(  0.07%)
                                         0.0000 -0.5772  0.0000  0.7068  0.0000
                                        -0.4081  0.0000  0.0000  0.0000  0.0209
                                         0.0000  0.0000 -0.0122  0.0111
               ( 45.22%)  -0.6724* H  4 s( 99.92%)p 0.00(  0.08%)
                                        -0.9996  0.0004  0.0241 -0.0138  0.0000
   9. (0.00001) RY ( 1) B  1            s(  0.04%)p 0.00(  0.00%)d99.99( 99.96%)
  10. (0.00000) RY ( 2) B  1            s(100.00%)p 0.00(  0.00%)
  11. (0.00000) RY ( 3) B  1            s(  0.00%)p 1.00(100.00%)
  12. (0.00000) RY ( 4) B  1            s(  0.00%)p 1.00(100.00%)d 0.00(  0.00%)
  13. (0.00000) RY ( 5) B  1            s(  0.00%)p 1.00(100.00%)
  14. (0.00000) RY ( 6) B  1            s(  0.00%)p 1.00(  0.09%)d99.99( 99.91%)
  15. (0.00000) RY ( 7) B  1            s(  0.00%)p 0.00(  0.00%)d 1.00(100.00%)
  16. (0.00000) RY ( 8) B  1            s(  0.00%)p 0.00(  0.00%)d 1.00(100.00%)
  17. (0.00000) RY ( 9) B  1            s(  0.00%)p 1.00(  0.09%)d99.99( 99.91%)
  18. (0.00009) RY ( 1) H  2            s( 45.39%)p 1.20( 54.61%)
  19. (0.00002) RY ( 2) H  2            s(  0.00%)p 1.00(100.00%)
  20. (0.00000) RY ( 3) H  2            s( 54.70%)p 0.83( 45.30%)
  21. (0.00000) RY ( 4) H  2            s(  0.00%)p 1.00(100.00%)
  22. (0.00010) RY ( 1) H  3            s( 43.59%)p 1.29( 56.41%)
  23. (0.00003) RY ( 2) H  3            s(  0.02%)p99.99( 99.98%)
  24. (0.00000) RY ( 3) H  3            s( 56.47%)p 0.77( 43.53%)
  25. (0.00000) RY ( 4) H  3            s(  0.00%)p 1.00(100.00%)
  26. (0.00010) RY ( 1) H  4            s( 43.59%)p 1.29( 56.41%)
  27. (0.00003) RY ( 2) H  4            s(  0.02%)p99.99( 99.98%)
  28. (0.00000) RY ( 3) H  4            s( 56.47%)p 0.77( 43.53%)
  29. (0.00000) RY ( 4) H  4            s(  0.00%)p 1.00(100.00%)


 NHO DIRECTIONALITY AND BOND BENDING (deviation from line of nuclear centers at
                                      the position of maximum hybrid amplitude)

         [Thresholds for printing:  angular deviation  >  1.0 degree]
                                    p- or d-character  > 25.0%
                                    orbital occupancy  >  0.10e

                        Line of Centers        Hybrid 1             Hybrid 2
                        ---------------  -------------------  ------------------
           NBO            Theta   Phi    Theta   Phi    Dev   Theta   Phi    Dev
 ===============================================================================
    None exceeding thresholds


 SECOND ORDER PERTURBATION THEORY ANALYSIS OF FOCK MATRIX IN NBO BASIS

     Threshold for printing:   0.50 kcal/mol
                                                          E(2) E(NL)-E(L) F(L,NL)
      Donor (L) NBO              Acceptor (NL) NBO      kcal/mol   a.u.    a.u.
 ===============================================================================

 within unit  1
    2. BD ( 1) B  1- H  2       7. BD*( 1) B  1- H  3      0.54    0.73   0.018
    2. BD ( 1) B  1- H  2       8. BD*( 1) B  1- H  4      0.54    0.73   0.018
    3. BD ( 1) B  1- H  3       6. BD*( 1) B  1- H  2      0.55    0.73   0.018
    3. BD ( 1) B  1- H  3       8. BD*( 1) B  1- H  4      0.55    0.73   0.018
    4. BD ( 1) B  1- H  4       6. BD*( 1) B  1- H  2      0.55    0.73   0.018
    4. BD ( 1) B  1- H  4       7. BD*( 1) B  1- H  3      0.55    0.73   0.018


 NATURAL BOND ORBITALS (Summary):

                                                     Principal Delocalizations
           NBO                 Occupancy    Energy   (geminal,vicinal,remote)
 ===============================================================================
 Molecular unit  1  (H3B)
 ------ Lewis --------------------------------------
    1. CR ( 1) B  1             1.99999    -6.54470
    2. BD ( 1) B  1- H  2       1.99732    -0.35505  7(g),8(g)
    3. BD ( 1) B  1- H  3       1.99733    -0.35506  6(g),8(g)
    4. BD ( 1) B  1- H  4       1.99733    -0.35506  6(g),7(g)
 ------ non-Lewis ----------------------------------
    5. LV ( 1) B  1             0.00000    -0.08882
    6. BD*( 1) B  1- H  2       0.00256     0.37283
    7. BD*( 1) B  1- H  3       0.00256     0.37278
    8. BD*( 1) B  1- H  4       0.00256     0.37278
    9. RY ( 1) B  1             0.00001     1.32752
   10. RY ( 2) B  1             0.00000     0.21433
   11. RY ( 3) B  1             0.00000     0.24589
   12. RY ( 4) B  1             0.00000     0.24616
   13. RY ( 5) B  1             0.00000     0.27144
   14. RY ( 6) B  1             0.00000     1.63086
   15. RY ( 7) B  1             0.00000     1.10496
   16. RY ( 8) B  1             0.00000     1.11096
   17. RY ( 9) B  1             0.00000     1.63436
   18. RY ( 1) H  2             0.00009     1.43308
   19. RY ( 2) H  2             0.00002     1.63044
   20. RY ( 3) H  2             0.00000     1.19651
   21. RY ( 4) H  2             0.00000     1.54274
   22. RY ( 1) H  3             0.00010     1.48181
   23. RY ( 2) H  3             0.00003     1.63438
   24. RY ( 3) H  3             0.00000     1.16710
   25. RY ( 4) H  3             0.00000     1.54879
   26. RY ( 1) H  4             0.00010     1.48181
   27. RY ( 2) H  4             0.00003     1.63438
   28. RY ( 3) H  4             0.00000     1.16710
   29. RY ( 4) H  4             0.00000     1.54879
          -------------------------------
                 Total Lewis    7.99196  ( 99.8995%)
           Valence non-Lewis    0.00767  (  0.0959%)
           Rydberg non-Lewis    0.00037  (  0.0046%)
          -------------------------------
               Total unit  1    8.00000  (100.0000%)
              Charge unit  1    0.00000

 $CHOOSE
   BOND S 1 2 S 1 3 S 1 4 END
 $END

 NBO analysis completed in 0.07 CPU seconds (0 wall seconds)
 Maximum scratch memory used by NBO was 149203 words
 Maximum scratch memory used by G09NBO was 12541 words

 Read Unf file /scr/martin/g09job.inter1516779857/Gau-27996.EUF:
 Label Gaussian matrix elements                                         IVers= 1 NLab= 2 Version=ES64L-G09RevE.01
 Title Borane DF-BP86/def2-SVP                                         
 NAtoms=     4 NBasis=    29 NBsUse=    29 ICharg=     0 Multip=     1 NE=     8 Len12L=8 Len4L=8
 Label GAUSSIAN SCALARS                                                 NI= 1 NR= 1 NTot=       1 LenBuf=    2000 N=    1000       1       1       1       1
 Label NPA CHARGES                                                      NI= 0 NR= 1 NTot=       4 LenBuf=    4000 N=       4       0       0       0       0
 Recovered energy= 0.000000000000E+00 dipole=      0.000000000000      0.000000000000      0.000000000000
 Leave Link  612 at Wed Jan 24 16:44:19 2018, MaxMem=   536870912 cpu:         0.1
 (Enter /home/chemsoft/gaussian/g09e01/g09/l9999.exe)

 This type of calculation cannot be archived.


 There are more things in heaven and earth, Horatio,
 than are dreamt of in your philosophy.
                   -- Hamlet, Act I, Scene 5
 Job cpu time:       0 days  0 hours  0 minutes  1.4 seconds.
 File lengths (MBytes):  RWF=      5 Int=      0 D2E=      0 Chk=      1 Scr=      1
 Normal termination of Gaussian 09 at Wed Jan 24 16:44:20 2018.
