Methane DF-BP86/def2-SVP                                                
FOpt      UBP86                                                       def2SVP/W06         
Number of atoms                            I                4
Info1-9                                    I   N=           9
          21          20           0           0           0         111
           2          18         402
Full Title                                 C   N=           2
Methane DF-BP86/def2-SVP
Route                                      C   N=          14
#P UBP86/def2SVP/W06 DenFit opt (MaxCycle=100) scf=(xqc, Max
ConventionalCycle=500) int = (ultrafinegrid) gfinput gfoldpr
int iop(6/7=3) symmetry=loose pop = full        
Charge                                     I                0
Multiplicity                               I                2
Number of electrons                        I                9
Number of alpha electrons                  I                5
Number of beta electrons                   I                4
Number of basis functions                  I               29
Number of independent functions            I               29
Number of point charges in /Mol/           I                0
Number of translation vectors              I                0
Atomic numbers                             I   N=           4
           6           1           1           1
Nuclear charges                            R   N=           4
  6.00000000E+00  1.00000000E+00  1.00000000E+00  1.00000000E+00
Current cartesian coordinates              R   N=          12
 -3.54280183E-17 -2.71050543E-20  1.16969129E-04  3.43319963E-16  2.07657943E+00
 -2.33938259E-04  1.79837054E+00 -1.03828972E+00 -2.33938259E-04 -1.79837054E+00
 -1.03828972E+00 -2.33938259E-04
Number of symbols in /Mol/                 I                0
Redundant internal dimensions              I   N=           4
           7           3           3           1
Redundant internal coordinate indices      I   N=          28
           1           2           0           0           1           3
           0           0           1           4           0           0
           2           1           3           0           2           1
           4           0           3           1           4           0
           2           1           4           3
Redundant internal coordinates             R   N=           7
  2.07657946E+00  2.07657946E+00  2.07657946E+00  2.09439505E+00  2.09439505E+00
  2.09439505E+00  3.14100728E+00
ZRed-IntVec                                I   N=           7
           0           0           0           0           0           0
           0
ZRed-FPVec                                 R   N=           7
  0.00000000E+00  0.00000000E+00  0.00000000E+00  0.00000000E+00  0.00000000E+00
  0.00000000E+00  0.00000000E+00
ZRed-Constraint1                           R   N=           7
  2.06335348E+00  2.06335348E+00  2.06335348E+00  1.91063324E+00  1.91063324E+00
  1.91063324E+00  2.09439510E+00
ZRed-Constraint2                           R   N=           7
  0.00000000E+00  0.00000000E+00  0.00000000E+00  0.00000000E+00  0.00000000E+00
  0.00000000E+00  0.00000000E+00
Force Field                                I                0
Atom Types                                 C   N=           4
                                                
Int Atom Types                             I   N=           4
           0           0           0           0
MM charges                                 R   N=           4
  0.00000000E+00  0.00000000E+00  0.00000000E+00  0.00000000E+00
Integer atomic weights                     I   N=           4
          12           1           1           1
Real atomic weights                        R   N=           4
  1.20000000E+01  1.00782504E+00  1.00782504E+00  1.00782504E+00
Atom fragment info                         I   N=           4
           0           0           0           0
Atom residue num                           I   N=           4
           0           0           0           0
Nuclear spins                              I   N=           4
           0           1           1           1
Nuclear ZEff                               R   N=           4
 -3.60000000E+00 -1.00000000E+00 -1.00000000E+00 -1.00000000E+00
Nuclear ZNuc                               R   N=           4
  6.00000000E+00  1.00000000E+00  1.00000000E+00  1.00000000E+00
Nuclear QMom                               R   N=           4
  0.00000000E+00  0.00000000E+00  0.00000000E+00  0.00000000E+00
Nuclear GFac                               R   N=           4
  0.00000000E+00  2.79284600E+00  2.79284600E+00  2.79284600E+00
MicOpt                                     I   N=           4
          -1          -1          -1          -1
Number of residues                         I                0
Number of secondary structures             I                0
SymInf integers                            I   N=          26
           2           2           1           1           1          -1
           1           1           0           0           0           0
           0           0           0           0           0           0
           0           0           0           0           0           0
           0           0
RotTr to input orientation                 R   N=          12
  7.07106783E-01 -7.07106780E-01 -3.36505601E-09  4.08248291E-01  4.08248289E-01
  8.16496581E-01 -5.77350266E-01 -5.77350272E-01  5.77350269E-01  2.97879926E-01
  2.97879929E-01 -2.97879928E-01
Number of contracted shells                I               15
Number of primitive shells                 I               27
Pure/Cartesian d shells                    I                0
Pure/Cartesian f shells                    I                0
Highest angular momentum                   I                2
Largest degree of contraction              I                5
Shell types                                I   N=          15
           0           0           0           1           1          -2
           0           0           1           0           0           1
           0           0           1
Number of primitives per shell             I   N=          15
           5           1           1           3           1           1
           3           1           1           3           1           1
           3           1           1
Shell to atom map                          I   N=          15
           1           1           1           1           1           1
           2           2           2           3           3           3
           4           4           4
Primitive exponents                        R   N=          27
  1.23840169E+03  1.86290050E+02  4.22511763E+01  1.16765579E+01  3.59305065E+00
  4.02451474E-01  1.30901827E-01  9.46809706E+00  2.01035451E+00  5.47710047E-01
  1.52686138E-01  8.00000000E-01  1.30107010E+01  1.96225720E+00  4.44537960E-01
  1.21949620E-01  8.00000000E-01  1.30107010E+01  1.96225720E+00  4.44537960E-01
  1.21949620E-01  8.00000000E-01  1.30107010E+01  1.96225720E+00  4.44537960E-01
  1.21949620E-01  8.00000000E-01
Contraction coefficients                   R   N=          27
  5.51736505E-03  4.10888286E-02  1.82253821E-01  4.68284594E-01  4.45758173E-01
  1.00000000E+00  1.00000000E+00  5.68883320E-02  3.12940593E-01  7.60650165E-01
  1.00000000E+00  1.00000000E+00  3.34854848E-02  2.34721871E-01  8.13770285E-01
  1.00000000E+00  1.00000000E+00  3.34854848E-02  2.34721871E-01  8.13770285E-01
  1.00000000E+00  1.00000000E+00  3.34854848E-02  2.34721871E-01  8.13770285E-01
  1.00000000E+00  1.00000000E+00
Coordinates of each shell                  R   N=          45
 -3.54395491E-17 -2.71050543E-20  1.16969129E-04 -3.54395491E-17 -2.71050543E-20
  1.16969129E-04 -3.54395491E-17 -2.71050543E-20  1.16969129E-04 -3.54395491E-17
 -2.71050543E-20  1.16969129E-04 -3.54395491E-17 -2.71050543E-20  1.16969129E-04
 -3.54395491E-17 -2.71050543E-20  1.16969129E-04 -9.09523748E-16  2.07657943E+00
 -2.33938259E-04 -9.09523748E-16  2.07657943E+00 -2.33938259E-04 -9.09523748E-16
  2.07657943E+00 -2.33938259E-04  1.79837054E+00 -1.03828972E+00 -2.33938259E-04
  1.79837054E+00 -1.03828972E+00 -2.33938259E-04  1.79837054E+00 -1.03828972E+00
 -2.33938259E-04 -1.79837054E+00 -1.03828972E+00 -2.33938259E-04 -1.79837054E+00
 -1.03828972E+00 -2.33938259E-04 -1.79837054E+00 -1.03828972E+00 -2.33938259E-04
Density Number of contracted shells        I               30
Density Number of primitive shells         I               48
Density Pure/Cartesian d shells            I                0
Density Pure/Cartesian f shells            I                0
Density Highest angular momentum           I                4
Density Largest degree of contraction      I                7
Density Shell types                        I   N=          30
           0           0           0           0           0           0
           1           1           1           1          -2          -2
          -2          -3          -4           0           0           0
           1          -2           0           0           0           1
          -2           0           0           0           1          -2
Density Number of primitives per shell     I   N=          30
           7           1           1           1           1           1
           2           1           1           1           2           1
           1           2           1           3           1           1
           2           1           3           1           1           2
           1           3           1           1           2           1
Density Shell to atom map                  I   N=          30
           1           1           1           1           1           1
           1           1           1           1           1           1
           1           1           1           2           2           2
           2           2           3           3           3           3
           3           4           4           4           4           4
Density Primitive exponents                R   N=          48
  1.86109163E+03  6.42993976E+02  2.35110572E+02  9.07028894E+01  3.67794552E+01
  1.56046273E+01  6.89072940E+00  3.14788500E+00  1.47772870E+00  7.07646600E-01
  3.43012200E-01  1.66945300E-01  1.35472892E+01  5.46694190E+00  2.17517210E+00
  8.58219400E-01  3.37672000E-01  5.92872530E+00  1.98092090E+00  8.05541700E-01
  3.53124400E-01  1.67556260E+00  5.99753600E-01  1.00246000E+00  1.56752927E+01
  3.60635780E+00  1.20800160E+00  4.72679400E-01  2.01810000E-01  2.02813650E+00
  5.35873000E-01  2.21651240E+00  1.56752927E+01  3.60635780E+00  1.20800160E+00
  4.72679400E-01  2.01810000E-01  2.02813650E+00  5.35873000E-01  2.21651240E+00
  1.56752927E+01  3.60635780E+00  1.20800160E+00  4.72679400E-01  2.01810000E-01
  2.02813650E+00  5.35873000E-01  2.21651240E+00
Density Contraction coefficients           R   N=          48
  1.63043228E-03  6.16502245E-03  3.43746497E-02  1.30091717E-01  3.38115066E-01
  4.22761457E-01  1.05526830E-01 -1.00000000E+00  1.00000000E+00  1.00000000E+00
  1.00000000E+00  1.00000000E+00 -5.51621037E-01 -4.84824561E-01  1.00000000E+00
  1.00000000E+00  1.00000000E+00 -2.19184826E-01 -8.00220953E-01 -1.00000000E+00
 -1.00000000E+00  4.58454475E-01  6.03229739E-01 -1.00000000E+00  3.26115897E-02
  2.29804684E-01  7.57208324E-01  1.00000000E+00  1.00000000E+00  3.61836199E-01
  7.03930309E-01  1.00000000E+00  3.26115897E-02  2.29804684E-01  7.57208324E-01
  1.00000000E+00  1.00000000E+00  3.61836199E-01  7.03930309E-01  1.00000000E+00
  3.26115897E-02  2.29804684E-01  7.57208324E-01  1.00000000E+00  1.00000000E+00
  3.61836199E-01  7.03930309E-01  1.00000000E+00
Density Coordinates of each shell          R   N=          90
 -3.54395491E-17 -2.71050543E-20  1.16969129E-04 -3.54395491E-17 -2.71050543E-20
  1.16969129E-04 -3.54395491E-17 -2.71050543E-20  1.16969129E-04 -3.54395491E-17
 -2.71050543E-20  1.16969129E-04 -3.54395491E-17 -2.71050543E-20  1.16969129E-04
 -3.54395491E-17 -2.71050543E-20  1.16969129E-04 -3.54395491E-17 -2.71050543E-20
  1.16969129E-04 -3.54395491E-17 -2.71050543E-20  1.16969129E-04 -3.54395491E-17
 -2.71050543E-20  1.16969129E-04 -3.54395491E-17 -2.71050543E-20  1.16969129E-04
 -3.54395491E-17 -2.71050543E-20  1.16969129E-04 -3.54395491E-17 -2.71050543E-20
  1.16969129E-04 -3.54395491E-17 -2.71050543E-20  1.16969129E-04 -3.54395491E-17
 -2.71050543E-20  1.16969129E-04 -3.54395491E-17 -2.71050543E-20  1.16969129E-04
 -9.09523748E-16  2.07657943E+00 -2.33938259E-04 -9.09523748E-16  2.07657943E+00
 -2.33938259E-04 -9.09523748E-16  2.07657943E+00 -2.33938259E-04 -9.09523748E-16
  2.07657943E+00 -2.33938259E-04 -9.09523748E-16  2.07657943E+00 -2.33938259E-04
  1.79837054E+00 -1.03828972E+00 -2.33938259E-04  1.79837054E+00 -1.03828972E+00
 -2.33938259E-04  1.79837054E+00 -1.03828972E+00 -2.33938259E-04  1.79837054E+00
 -1.03828972E+00 -2.33938259E-04  1.79837054E+00 -1.03828972E+00 -2.33938259E-04
 -1.79837054E+00 -1.03828972E+00 -2.33938259E-04 -1.79837054E+00 -1.03828972E+00
 -2.33938259E-04 -1.79837054E+00 -1.03828972E+00 -2.33938259E-04 -1.79837054E+00
 -1.03828972E+00 -2.33938259E-04 -1.79837054E+00 -1.03828972E+00 -2.33938259E-04
Constraint Structure                       R   N=          12
  1.99065791E-18 -1.38777878E-17  2.29261497E-01  1.58684458E-16  1.94534831E+00
 -4.58522995E-01  1.68472106E+00 -9.72674157E-01 -4.58522995E-01 -1.68472106E+00
 -9.72674157E-01 -4.58522995E-01
Num ILSW                                   I              100
ILSW                                       I   N=         100
           1           0           0           0           2           0
           0           0           0           0         404          -1
           5           0           0           0           2           0
           0           0           0           0           1           0
           1           0           0           0           0           0
           0           0      100000           0          -1           0
           0           0           0           0           0           0
           0           0           0           1           0           0
           0           0           1           0           0           0
           0           0           4          41           0           0
           0           0           0           0           0           0
           0           0           0           4           0           0
           0           0           0           0           0           0
           0           0           0           0           0           0
           0           0           0           0           0           0
           0           0           0           0           0           0
           0           0           0           0
Num RLSW                                   I               41
RLSW                                       R   N=          41
  1.00000000E+00  1.00000000E+00  1.00000000E+00  1.00000000E+00  0.00000000E+00
  0.00000000E+00  0.00000000E+00  1.00000000E+00  0.00000000E+00  0.00000000E+00
  0.00000000E+00  0.00000000E+00  1.00000000E+00  0.00000000E+00  0.00000000E+00
  0.00000000E+00  0.00000000E+00  1.00000000E+00  0.00000000E+00  0.00000000E+00
  0.00000000E+00  0.00000000E+00  1.00000000E+00  0.00000000E+00  0.00000000E+00
  0.00000000E+00  0.00000000E+00  1.00000000E+00  0.00000000E+00  0.00000000E+00
  0.00000000E+00  0.00000000E+00  1.00000000E+00  0.00000000E+00  0.00000000E+00
  0.00000000E+00  0.00000000E+00  0.00000000E+00  1.00000000E+00  1.00000000E+00
  0.00000000E+00
ECP-MxAtEC                                 I           250000
ECP-MaxLECP                                I               10
ECP-MaxAtL                                 I          2250000
ECP-MxTECP                                 I         11250000
ECP-LenNCZ                                 I                0
ECP-KFirst                                 I   N=          40
           0           0           0           0           0           0
           0           0           0           0           0           0
           0           0           0           0           0           0
           0           0           0           0           0           0
           0           0           0           0           0           0
           0           0           0           0           0           0
           0           0           0           0
ECP-KLast                                  I   N=          40
           0           0           0           0           0           0
           0           0           0           0           0           0
           0           0           0           0           0           0
           0           0           0           0           0           0
           0           0           0           0           0           0
           0           0           0           0           0           0
           0           0           0           0
ECP-LMax                                   I   N=           4
           0           0           0           0
ECP-LPSkip                                 I   N=           4
           1           1           1           1
ECP-RNFroz                                 R   N=           4
  0.00000000E+00  0.00000000E+00  0.00000000E+00  0.00000000E+00
ECP-NLP                                    I                0
ECP-CLP1                                   R      0.000000000000000E+00
ECP-CLP2                                   R      0.000000000000000E+00
ECP-ZLP                                    R      0.000000000000000E+00
MxBond                                     I                3
NBond                                      I   N=           4
           3           1           1           1
IBond                                      I   N=          12
           2           3           4           1           0           0
           1           0           0           1           0           0
RBond                                      R   N=          12
  1.00000000E+00  1.00000000E+00  1.00000000E+00  1.00000000E+00  0.00000000E+00
  0.00000000E+00  1.00000000E+00  0.00000000E+00  0.00000000E+00  1.00000000E+00
  0.00000000E+00  0.00000000E+00
Virial Ratio                               R      2.015197595873638E+00
SCF Energy                                 R     -3.980306812826267E+01
Total Energy                               R     -3.980306812826267E+01
S**2                                       R      7.534827033032907E-01
S**2 after annihilation                    R      7.500064090465221E-01
RMS Force                                  R      5.575521429483408E-06
RMS Density                                R      2.909357320941975E-09
Job Status                                 I                1
Nuclear derivative order                   I                1
External E-field                           R   N=          35
  0.00000000E+00  0.00000000E+00  0.00000000E+00  0.00000000E+00  0.00000000E+00
  0.00000000E+00  0.00000000E+00  0.00000000E+00  0.00000000E+00  0.00000000E+00
  0.00000000E+00  0.00000000E+00  0.00000000E+00  0.00000000E+00  0.00000000E+00
  0.00000000E+00  0.00000000E+00  0.00000000E+00  0.00000000E+00  0.00000000E+00
  0.00000000E+00  0.00000000E+00  0.00000000E+00  0.00000000E+00  0.00000000E+00
  0.00000000E+00  0.00000000E+00  0.00000000E+00  0.00000000E+00  0.00000000E+00
  0.00000000E+00  0.00000000E+00  0.00000000E+00  0.00000000E+00  0.00000000E+00
IOpCl                                      I                1
IROHF                                      I                0
Alpha Orbital Energies                     R   N=          29
 -9.93027133E+00 -6.06686062E-01 -3.70579582E-01 -3.70579582E-01 -1.94275399E-01
  5.68490114E-02  1.20468571E-01  1.20468571E-01  4.06783214E-01  4.06783214E-01
  4.23664720E-01  4.34085816E-01  5.84936630E-01  6.31156816E-01  6.31156816E-01
  1.12992956E+00  1.12992956E+00  1.40167735E+00  1.52556720E+00  1.52556720E+00
  1.65053570E+00  1.73151269E+00  2.11831240E+00  2.11831240E+00  2.12892229E+00
  2.12892229E+00  2.72248547E+00  2.80022163E+00  2.80022163E+00
Beta Orbital Energies                      R   N=          29
 -9.91651724E+00 -5.73638743E-01 -3.60818626E-01 -3.60818626E-01 -9.59563533E-02
  6.95221096E-02  1.25248571E-01  1.25248571E-01  4.14610117E-01  4.14610117E-01
  4.56282270E-01  5.17634190E-01  6.13488571E-01  6.39910658E-01  6.39910658E-01
  1.15484590E+00  1.15484590E+00  1.39707309E+00  1.52783048E+00  1.52783048E+00
  1.66354748E+00  1.81807050E+00  2.13202883E+00  2.13202883E+00  2.17429573E+00
  2.17429573E+00  2.74303834E+00  2.81075444E+00  2.81075444E+00
Alpha MO coefficients                      R   N=         841
  9.87795750E-01  5.00473848E-02 -3.24831859E-02  0.00000000E+00 -2.99712493E-16
 -1.44306430E-06  0.00000000E+00  1.64075758E-15  1.53313738E-06 -2.59600664E-03
  0.00000000E+00 -4.14585577E-17  4.19494204E-16  0.00000000E+00 -4.62432500E-03
  7.40386374E-03  0.00000000E+00  3.14744093E-03 -7.28468565E-07 -4.62432500E-03
  7.40386374E-03  2.72576381E-03 -1.57372047E-03 -7.28468565E-07 -4.62432500E-03
  7.40386374E-03 -2.72576381E-03 -1.57372047E-03 -7.28468565E-07 -2.60915867E-01
  5.19317571E-01  2.22917046E-01  0.00000000E+00  2.22484897E-16 -3.16531418E-05
  0.00000000E+00 -3.45811084E-17 -5.61946103E-06  5.55067789E-03  0.00000000E+00
  1.26096190E-16  4.01017602E-16  0.00000000E+00  1.84408975E-01  2.32396732E-02
  0.00000000E+00 -2.04362969E-02  1.74818255E-06  1.84408975E-01  2.32396732E-02
 -1.76983522E-02  1.02181484E-02  1.74818255E-06  1.84408975E-01  2.32396732E-02
  1.76983522E-02  1.02181484E-02  1.74818255E-06  0.00000000E+00  0.00000000E+00
  0.00000000E+00  4.52642860E-01  0.00000000E+00  0.00000000E+00  1.75901788E-01
  0.00000000E+00  0.00000000E+00  0.00000000E+00 -5.71957025E-06  0.00000000E+00
  0.00000000E+00 -1.58131923E-02  0.00000000E+00  0.00000000E+00  1.26403008E-02
  0.00000000E+00  0.00000000E+00  3.16262998E-01  1.20599431E-01 -4.29045048E-03
  9.77497383E-03  1.62424186E-06 -3.16262998E-01 -1.20599431E-01 -4.29045048E-03
 -9.77497383E-03 -1.62424186E-06  2.42158039E-16 -3.96591005E-16 -6.73485393E-15
  0.00000000E+00  4.52642860E-01 -1.33694134E-16  0.00000000E+00  1.75901788E-01
 -2.36271379E-16  2.94082425E-16  0.00000000E+00 -5.71957025E-06 -1.58131923E-02
  0.00000000E+00  3.65189054E-01  1.39256228E-01  0.00000000E+00 -9.93403425E-03
  1.87551295E-06 -1.82594527E-01 -6.96281138E-02  9.77497383E-03  6.99671706E-03
 -9.37756475E-07 -1.82594527E-01 -6.96281138E-02 -9.77497383E-03  6.99671706E-03
 -9.37756475E-07 -4.43673173E-05  1.04546116E-04  1.52614430E-04  0.00000000E+00
 -7.76200668E-17  6.11962995E-01  0.00000000E+00  1.03767696E-15  5.12136519E-01
  2.91990019E-06  0.00000000E+00  1.11620301E-17  3.34560185E-17  0.00000000E+00
 -4.84972060E-05 -3.37025065E-05  0.00000000E+00  2.55961727E-06  1.85632969E-02
 -4.84972060E-05 -3.37025065E-05  2.21669358E-06 -1.27980863E-06  1.85632969E-02
 -4.84972060E-05 -3.37025065E-05 -2.21669358E-06 -1.27980863E-06  1.85632969E-02
 -1.71306410E-01  3.82093959E-01  2.23060523E+00  0.00000000E+00 -1.24984335E-14
 -9.29705302E-05  0.00000000E+00 -5.96679901E-14 -2.75209224E-04  1.89222826E-02
  0.00000000E+00  2.85971966E-16  2.00589479E-16  0.00000000E+00 -1.04637514E-01
 -1.11870058E+00  0.00000000E+00 -1.44090547E-02  5.59670910E-08 -1.04637514E-01
 -1.11870058E+00 -1.24786074E-02  7.20452734E-03  5.59670911E-08 -1.04637514E-01
 -1.11870058E+00  1.24786074E-02  7.20452734E-03  5.59670911E-08  7.78340691E-15
 -2.51730166E-14 -5.71505806E-14  0.00000000E+00 -4.11739561E-01 -2.36993874E-16
  0.00000000E+00 -1.22951830E+00  3.34856782E-16 -1.38348704E-17  0.00000000E+00
 -4.87377503E-06 -1.87121959E-02  0.00000000E+00  1.29955707E-01  1.85996515E+00
  0.00000000E+00  1.47445063E-02 -6.23327747E-06 -6.49778534E-02 -9.29982574E-01
 -1.42642632E-02 -9.96192227E-03  3.11663873E-06 -6.49778534E-02 -9.29982574E-01
  1.42642632E-02 -9.96192227E-03  3.11663873E-06  0.00000000E+00  0.00000000E+00
  0.00000000E+00 -4.11739561E-01  0.00000000E+00  0.00000000E+00 -1.22951830E+00
  0.00000000E+00  0.00000000E+00  0.00000000E+00 -4.87377503E-06  0.00000000E+00
  0.00000000E+00 -1.87121959E-02  0.00000000E+00  0.00000000E+00 -1.81973985E-02
  0.00000000E+00  0.00000000E+00  1.12544943E-01  1.61077707E+00  6.50903014E-03
 -1.42642632E-02 -5.39817663E-06 -1.12544943E-01 -1.61077707E+00  6.50903014E-03
  1.42642632E-02  5.39817663E-06 -9.25645147E-15  8.29690628E-14 -2.07971222E-13
  0.00000000E+00 -3.03291895E-01  3.04875201E-15  0.00000000E+00  1.39584191E+00
 -1.93878360E-15 -5.43037706E-15  0.00000000E+00  2.88401124E-05  9.33977633E-02
  0.00000000E+00 -8.29526035E-01 -9.68479001E-02  0.00000000E+00  1.21896480E-02
  1.08327048E-05  4.14763017E-01  4.84239501E-02  3.14839432E-02  6.67214372E-02
 -5.41635242E-06  4.14763017E-01  4.84239501E-02 -3.14839432E-02  6.67214372E-02
 -5.41635242E-06  0.00000000E+00  0.00000000E+00  0.00000000E+00 -3.03291895E-01
  0.00000000E+00  0.00000000E+00  1.39584191E+00  0.00000000E+00  0.00000000E+00
  0.00000000E+00  2.88401124E-05  0.00000000E+00  0.00000000E+00  9.33977633E-02
  0.00000000E+00  0.00000000E+00  8.48987003E-02  0.00000000E+00  0.00000000E+00
 -7.18390619E-01 -8.38727418E-02  3.03669111E-02  3.14839432E-02  9.38139759E-06
  7.18390619E-01  8.38727418E-02  3.03669111E-02 -3.14839432E-02 -9.38139759E-06
  6.93164482E-02 -8.76137778E-01  2.49762120E+00  0.00000000E+00 -1.92578903E-14
 -2.85705380E-04  0.00000000E+00  1.01228402E-13 -1.15865432E-06  1.14575022E-01
  0.00000000E+00  2.43768245E-16  5.46469875E-15  0.00000000E+00 -6.48390466E-01
 -2.75113035E-01  0.00000000E+00 -2.55901146E-02 -2.78452716E-05 -6.48390466E-01
 -2.75113035E-01 -2.21616893E-02  1.27950573E-02 -2.78452716E-05 -6.48390466E-01
 -2.75113035E-01  2.21616893E-02  1.27950573E-02 -2.78452716E-05  5.61496700E-05
 -1.73463381E-04 -1.34533077E-04  0.00000000E+00 -1.21193278E-15 -1.00014514E+00
  0.00000000E+00  4.96040354E-15  1.07301840E+00 -4.22171039E-05  0.00000000E+00
  5.61198425E-17  3.41283924E-16  0.00000000E+00  2.50766603E-04 -4.65045507E-05
  0.00000000E+00  1.43389011E-06 -2.28761975E-02  2.50766603E-04 -4.65045507E-05
  1.24178527E-06 -7.16945057E-07 -2.28761975E-02  2.50766603E-04 -4.65045507E-05
 -1.24178527E-06 -7.16945057E-07 -2.28761975E-02  2.96208872E-01 -1.84504890E+00
  4.31394491E+00  0.00000000E+00  3.83427559E-14  2.70876751E-04  0.00000000E+00
 -5.19993988E-14 -4.84782477E-04 -9.09641170E-02  0.00000000E+00 -4.88085371E-17
  6.00939654E-15  0.00000000E+00  3.98214360E-01 -1.43925038E+00  0.00000000E+00
  9.24764271E-02 -6.55068028E-06  3.98214360E-01 -1.43925038E+00  8.00869351E-02
 -4.62382136E-02 -6.55068028E-06  3.98214360E-01 -1.43925038E+00 -8.00869351E-02
 -4.62382136E-02 -6.55068028E-06 -1.14442954E-14  7.11833673E-14 -1.77341409E-13
  0.00000000E+00  9.28712003E-01 -2.79497794E-16  0.00000000E+00 -1.68042639E+00
 -3.01014759E-16  6.04515474E-15  0.00000000E+00  4.54548580E-05  1.35482111E-01
  0.00000000E+00 -5.75187668E-01  1.84515361E+00  0.00000000E+00 -1.60515359E-01
  3.64492583E-05  2.87593834E-01 -9.22576803E-01  9.35441809E-02  1.50791548E-03
 -1.82246291E-05  2.87593834E-01 -9.22576803E-01 -9.35441809E-02  1.50791548E-03
 -1.82246291E-05  0.00000000E+00  0.00000000E+00  0.00000000E+00 -9.28712003E-01
  0.00000000E+00  0.00000000E+00  1.68042639E+00  0.00000000E+00  0.00000000E+00
  0.00000000E+00 -4.54548580E-05  0.00000000E+00  0.00000000E+00 -1.35482111E-01
  0.00000000E+00  0.00000000E+00 -5.55156735E-02  0.00000000E+00  0.00000000E+00
  4.98127133E-01 -1.59794990E+00  1.06507601E-01 -9.35441809E-02 -3.15659836E-05
 -4.98127133E-01  1.59794990E+00  1.06507601E-01  9.35441809E-02  3.15659836E-05
 -3.04466625E-16  3.80503447E-15 -4.95502135E-15  0.00000000E+00  5.39424432E-06
 -3.01011586E-16  0.00000000E+00  1.73047130E-04 -1.09667609E-15 -7.26295706E-16
  0.00000000E+00  4.44530079E-01 -1.54493820E-04  0.00000000E+00 -7.24167669E-05
 -6.84226570E-05  0.00000000E+00  8.44423909E-05  6.00277852E-01  3.62083834E-05
  3.42113285E-05 -1.30975399E-04 -1.42413655E-04 -3.00138926E-01  3.62083834E-05
  3.42113285E-05  1.30975399E-04 -1.42413655E-04 -3.00138926E-01  0.00000000E+00
  0.00000000E+00  0.00000000E+00  5.39424433E-06  0.00000000E+00  0.00000000E+00
  1.73047130E-04  0.00000000E+00  0.00000000E+00  0.00000000E+00  4.44530079E-01
  0.00000000E+00  0.00000000E+00 -1.54493820E-04  0.00000000E+00  0.00000000E+00
 -2.18032337E-04  0.00000000E+00  0.00000000E+00 -6.27147598E-05 -5.92557592E-05
  8.82370890E-06 -1.30975399E-04  5.19855869E-01  6.27147598E-05  5.92557592E-05
  8.82370890E-06  1.30975399E-04 -5.19855869E-01  0.00000000E+00  0.00000000E+00
  0.00000000E+00  1.86157156E-15  0.00000000E+00  0.00000000E+00  1.57120062E-14
  0.00000000E+00  0.00000000E+00  0.00000000E+00  6.36744035E-15  0.00000000E+00
  0.00000000E+00 -6.70092520E-15  0.00000000E+00  0.00000000E+00  5.87708313E-01
  0.00000000E+00  0.00000000E+00 -9.59812062E-15 -2.92794708E-15 -2.93854157E-01
 -5.08970329E-01 -2.73896050E-16  9.59812062E-15  2.92794708E-15 -2.93854157E-01
  5.08970329E-01  2.73896050E-16 -6.57795109E-16  3.11485255E-15  8.06061132E-15
  0.00000000E+00 -1.75476095E-01  7.96611729E-16  0.00000000E+00  1.07850357E+00
  1.09410390E-15  5.94820120E-15  0.00000000E+00 -4.21720671E-05 -3.36156986E-01
  0.00000000E+00 -4.93177289E-01 -3.36773057E-01  0.00000000E+00 -3.32786011E-01
 -2.57241426E-04  2.46588645E-01  1.68386529E-01 -1.33916559E-01 -5.64736295E-01
  1.28620713E-04  2.46588645E-01  1.68386529E-01  1.33916559E-01 -5.64736295E-01
  1.28620713E-04  0.00000000E+00  0.00000000E+00  0.00000000E+00 -1.75476095E-01
  0.00000000E+00  0.00000000E+00  1.07850357E+00  0.00000000E+00  0.00000000E+00