 Entering Gaussian System, Link 0=g09
 Input=methyl.df-bp86svp.nbo6.com
 Output=methyl.df-bp86svp.nbo6.log
 Initial command:
 /home/chemsoft/gaussian/g09e01/g09/l1.exe "/scr/martin/g09job.inter1515759020/Gau-21707.inp" -scrdir="/scr/martin/g09job.inter1515759020/"
 Entering Link 1 = /home/chemsoft/gaussian/g09e01/g09/l1.exe PID=     21708.
  
 Copyright (c) 1988,1990,1992,1993,1995,1998,2003,2009,2015,
            Gaussian, Inc.  All Rights Reserved.
  
 This is part of the Gaussian(R) 09 program.  It is based on
 the Gaussian(R) 03 system (copyright 2003, Gaussian, Inc.),
 the Gaussian(R) 98 system (copyright 1998, Gaussian, Inc.),
 the Gaussian(R) 94 system (copyright 1995, Gaussian, Inc.),
 the Gaussian 92(TM) system (copyright 1992, Gaussian, Inc.),
 the Gaussian 90(TM) system (copyright 1990, Gaussian, Inc.),
 the Gaussian 88(TM) system (copyright 1988, Gaussian, Inc.),
 the Gaussian 86(TM) system (copyright 1986, Carnegie Mellon
 University), and the Gaussian 82(TM) system (copyright 1983,
 Carnegie Mellon University). Gaussian is a federally registered
 trademark of Gaussian, Inc.
  
 This software contains proprietary and confidential information,
 including trade secrets, belonging to Gaussian, Inc.
  
 This software is provided under written license and may be
 used, copied, transmitted, or stored only in accord with that
 written license.
  
 The following legend is applicable only to US Government
 contracts under FAR:
  
                    RESTRICTED RIGHTS LEGEND
  
 Use, reproduction and disclosure by the US Government is
 subject to restrictions as set forth in subparagraphs (a)
 and (c) of the Commercial Computer Software - Restricted
 Rights clause in FAR 52.227-19.
  
 Gaussian, Inc.
 340 Quinnipiac St., Bldg. 40, Wallingford CT 06492
  
  
 ---------------------------------------------------------------
 Warning -- This program may not be used in any manner that
 competes with the business of Gaussian, Inc. or will provide
 assistance to any competitor of Gaussian, Inc.  The licensee
 of this program is prohibited from giving any competitor of
 Gaussian, Inc. access to this program.  By using this program,
 the user acknowledges that Gaussian, Inc. is engaged in the
 business of creating and licensing software in the field of
 computational chemistry and represents and warrants to the
 licensee that it is not a competitor of Gaussian, Inc. and that
 it will not use this program in any manner prohibited above.
 ---------------------------------------------------------------
  

 Cite this work as:
 Gaussian 09, Revision E.01,
 M. J. Frisch, G. W. Trucks, H. B. Schlegel, G. E. Scuseria, 
 M. A. Robb, J. R. Cheeseman, G. Scalmani, V. Barone, B. Mennucci, 
 G. A. Petersson, H. Nakatsuji, M. Caricato, X. Li, H. P. Hratchian, 
 A. F. Izmaylov, J. Bloino, G. Zheng, J. L. Sonnenberg, M. Hada, 
 M. Ehara, K. Toyota, R. Fukuda, J. Hasegawa, M. Ishida, T. Nakajima, 
 Y. Honda, O. Kitao, H. Nakai, T. Vreven, J. A. Montgomery, Jr., 
 J. E. Peralta, F. Ogliaro, M. Bearpark, J. J. Heyd, E. Brothers, 
 K. N. Kudin, V. N. Staroverov, T. Keith, R. Kobayashi, J. Normand, 
 K. Raghavachari, A. Rendell, J. C. Burant, S. S. Iyengar, J. Tomasi, 
 M. Cossi, N. Rega, J. M. Millam, M. Klene, J. E. Knox, J. B. Cross, 
 V. Bakken, C. Adamo, J. Jaramillo, R. Gomperts, R. E. Stratmann, 
 O. Yazyev, A. J. Austin, R. Cammi, C. Pomelli, J. W. Ochterski, 
 R. L. Martin, K. Morokuma, V. G. Zakrzewski, G. A. Voth, 
 P. Salvador, J. J. Dannenberg, S. Dapprich, A. D. Daniels, 
 O. Farkas, J. B. Foresman, J. V. Ortiz, J. Cioslowski, 
 and D. J. Fox, Gaussian, Inc., Wallingford CT, 2013.
 
 ******************************************
 Gaussian 09:  ES64L-G09RevE.01 30-Nov-2015
                12-Jan-2018 
 ******************************************
 %chk=methyl.df-bp86svp.chk
 ----------------------------------------------------------------------
 #P UBP86/def2SVP/W06 DenFit scf(xqc,MaxConventionalCycle=500) int(ultr
 afinegrid) gfinput gfoldprint iop(6/7=3) symmetry(loose) geom(check) g
 uess(read,only) pop(nbo6read) output(wfn) pop(AllOrbitals) volume
 ----------------------------------------------------------------------
 1/29=2,38=1,163=2/1;
 2/12=2,17=4,18=3,40=1/2;
 3/5=43,7=101,11=2,14=-4,16=1,24=11,25=1,30=1,74=404,75=-5,82=40,89=1,116=2/1,2,3;
 4/5=1/1;
 6/7=3,28=1,40=2,44=1,87=-1,113=1,114=1,124=2103/1,12,4;
 99/5=2,6=100/99;
 Leave Link    1 at Fri Jan 12 21:10:20 2018, MaxMem=           0 cpu:         0.1
 (Enter /home/chemsoft/gaussian/g09e01/g09/l101.exe)
 ------------------------
 Methane DF-BP86/def2-SVP
 ------------------------
 Structure from the checkpoint file:  "methyl.df-bp86svp.chk"
 Charge =  0 Multiplicity = 2
 Redundant internal coordinates found in file.
 C,0,0.1575955313,0.1575955328,-0.1575955321
 H,0,0.6063180145,0.6063180138,0.7395278037
 H,0,0.6063180145,-0.7395278009,-0.6063180174
 H,0,-0.7395278066,0.6063180138,-0.6063180109
 Recover connectivity data from disk.
 NAtoms=      4 NQM=        4 NQMF=       0 NMMI=      0 NMMIF=      0
                NMic=       0 NMicF=      0.
                    Isotopes and Nuclear Properties:
 (Nuclear quadrupole moments (NQMom) in fm**2, nuclear magnetic moments (NMagM)
  in nuclear magnetons)

  Atom         1           2           3           4
 IAtWgt=          12           1           1           1
 AtmWgt=  12.0000000   1.0078250   1.0078250   1.0078250
 NucSpn=           0           1           1           1
 AtZEff=  -3.6000000  -1.0000000  -1.0000000  -1.0000000
 NQMom=    0.0000000   0.0000000   0.0000000   0.0000000
 NMagM=    0.0000000   2.7928460   2.7928460   2.7928460
 AtZNuc=   6.0000000   1.0000000   1.0000000   1.0000000
 Leave Link  101 at Fri Jan 12 21:10:21 2018, MaxMem=    33554432 cpu:         0.2
 (Enter /home/chemsoft/gaussian/g09e01/g09/l202.exe)
                          Input orientation:                          
 ---------------------------------------------------------------------
 Center     Atomic      Atomic             Coordinates (Angstroms)
 Number     Number       Type             X           Y           Z
 ---------------------------------------------------------------------
      1          6           0        0.157596    0.157596   -0.157596
      2          1           0        0.606318    0.606318    0.739528
      3          1           0        0.606318   -0.739528   -0.606318
      4          1           0       -0.739528    0.606318   -0.606318
 ---------------------------------------------------------------------
                    Distance matrix (angstroms):
                    1          2          3          4
     1  C    0.000000
     2  H    1.098879   0.000000
     3  H    1.098879   1.903313   0.000000
     4  H    1.098879   1.903313   1.903313   0.000000
 Stoichiometry    CH3(2)
 Framework group  C3V[C3(C),3SGV(H)]
 Deg. of freedom     2
 Full point group                 C3V     NOp   6
 RotChk:  IX=2 Diff= 1.85D-15
 Largest Abelian subgroup         CS      NOp   2
 Largest concise Abelian subgroup CS      NOp   2
                         Standard orientation:                         
 ---------------------------------------------------------------------
 Center     Atomic      Atomic             Coordinates (Angstroms)
 Number     Number       Type             X           Y           Z
 ---------------------------------------------------------------------
      1          6           0        0.000000   -0.000000    0.000062
      2          1           0       -0.000000    1.098879   -0.000124
      3          1           0        0.951657   -0.549439   -0.000124
      4          1           0       -0.951657   -0.549439   -0.000124
 ---------------------------------------------------------------------
 Rotational constants (GHZ):    276.8480153    276.8480153    138.4240140
 Leave Link  202 at Fri Jan 12 21:10:21 2018, MaxMem=    33554432 cpu:         0.0
 (Enter /home/chemsoft/gaussian/g09e01/g09/l301.exe)
 Standard basis: def2SVP (5D, 7F)
 ======================================================================================================
                                       Pseudopotential Parameters
 ======================================================================================================
  Center     Atomic      Valence      Angular      Power
  Number     Number     Electrons     Momentum     of R      Exponent        Coefficient   SO-Coeffient
 ======================================================================================================
    1          6
                                   No pseudopotential on this center.
    2          1
                                   No pseudopotential on this center.
    3          1
                                   No pseudopotential on this center.
    4          1
                                   No pseudopotential on this center.
 ======================================================================================================
 Ernie: Thresh=  0.10000D-02 Tol=  0.10000D-05 Strict=F.
 AO basis set in the form of general basis input (Overlap normalization):
      1 0
 S   5 1.00       0.000000000000
      0.1238401694D+04  0.5517365048D-02
      0.1862900499D+03  0.4108882856D-01
      0.4225117635D+02  0.1822538213D+00
      0.1167655793D+02  0.4682845944D+00
      0.3593050648D+01  0.4457581734D+00
 S   1 1.00       0.000000000000
      0.4024514736D+00  0.1000000000D+01
 S   1 1.00       0.000000000000
      0.1309018267D+00  0.1000000000D+01
 P   3 1.00       0.000000000000
      0.9468097062D+01  0.5688833201D-01
      0.2010354514D+01  0.3129405934D+00
      0.5477100471D+00  0.7606501651D+00
 P   1 1.00       0.000000000000
      0.1526861379D+00  0.1000000000D+01
 D   1 1.00       0.000000000000
      0.8000000000D+00  0.1000000000D+01
 ****
      2 0
 S   3 1.00       0.000000000000
      0.1301070100D+02  0.3348548481D-01
      0.1962257200D+01  0.2347218709D+00
      0.4445379600D+00  0.8137702853D+00
 S   1 1.00       0.000000000000
      0.1219496200D+00  0.1000000000D+01
 P   1 1.00       0.000000000000
      0.8000000000D+00  0.1000000000D+01
 ****
      3 0
 S   3 1.00       0.000000000000
      0.1301070100D+02  0.3348548481D-01
      0.1962257200D+01  0.2347218709D+00
      0.4445379600D+00  0.8137702853D+00
 S   1 1.00       0.000000000000
      0.1219496200D+00  0.1000000000D+01
 P   1 1.00       0.000000000000
      0.8000000000D+00  0.1000000000D+01
 ****
      4 0
 S   3 1.00       0.000000000000
      0.1301070100D+02  0.3348548481D-01
      0.1962257200D+01  0.2347218709D+00
      0.4445379600D+00  0.8137702853D+00
 S   1 1.00       0.000000000000
      0.1219496200D+00  0.1000000000D+01
 P   1 1.00       0.000000000000
      0.8000000000D+00  0.1000000000D+01
 ****

 ***********************************************************************************************************************************
 *             ATOMIC CENTER             *        ATOMIC ORBITAL       *                     GAUSSIAN FUNCTIONS                    *
 ***********************************************************************************************************************************
 *                                       * FUNCTION    SHELL    SCALE  *                                                           *
 *    ATOM   X-COORD  Y-COORD  Z-COORD   *  NUMBER     TYPE     FACTOR *  EXPONENT    S-COEF      P-COEF      D-COEF      F-COEF   *
 ***********************************************************************************************************************************
 *     C     -0.00000 -0.00000  0.00012                                                                                            *
+                                                1   S           1.00                                                               
+                                                                      0.123840D+040.820896D+000.000000D+000.000000D+000.000000D+00 
 *                                                                     0.186290D+030.147664D+010.000000D+000.000000D+000.000000D+00*
 *                                                                     0.422512D+020.215261D+010.000000D+000.000000D+000.000000D+00*
 *                                                                     0.116766D+020.210817D+010.000000D+000.000000D+000.000000D+00*
 *                                                                     0.359305D+010.829100D+000.000000D+000.000000D+000.000000D+00*
 *                                               2   S           1.00                                                              *
+                                                                      0.402451D+000.360118D+000.000000D+000.000000D+000.000000D+00 
 *                                               3   S           1.00                                                              *
+                                                                      0.130902D+000.155103D+000.000000D+000.000000D+000.000000D+00 
 *                                           4-  6   P           1.00                                                              *
+                                                                      0.946810D+010.000000D+000.134676D+010.000000D+000.000000D+00 
 *                                                                     0.201035D+010.000000D+000.106781D+010.000000D+000.000000D+00*
 *                                                                     0.547710D+000.000000D+000.510874D+000.000000D+000.000000D+00*
 *                                           7-  9   P           1.00                                                              *
+                                                                      0.152686D+000.000000D+000.136047D+000.000000D+000.000000D+00 
 *                                          10- 14   D           1.00                                                              *
+                                                                      0.800000D+000.000000D+000.000000D+000.111382D+010.000000D+00 
 *---------------------------------------------------------------------------------------------------------------------------------*
 *     H      0.00000  2.07658 -0.00023                                                                                            *
+                                               15   S           1.00                                                               
+                                                                      0.130107D+020.163490D+000.000000D+000.000000D+000.000000D+00 
 *                                                                     0.196226D+010.277352D+000.000000D+000.000000D+000.000000D+00*
 *                                                                     0.444538D+000.315750D+000.000000D+000.000000D+000.000000D+00*
 *                                              16   S           1.00                                                              *
+                                                                      0.121950D+000.147077D+000.000000D+000.000000D+000.000000D+00 
 *                                          17- 19   P           1.00                                                              *
+                                                                      0.800000D+000.000000D+000.107846D+010.000000D+000.000000D+00 
 *---------------------------------------------------------------------------------------------------------------------------------*
 *     H      1.79837 -1.03829 -0.00023                                                                                            *
+                                               20   S           1.00                                                               
+                                                                      0.130107D+020.163490D+000.000000D+000.000000D+000.000000D+00 
 *                                                                     0.196226D+010.277352D+000.000000D+000.000000D+000.000000D+00*
 *                                                                     0.444538D+000.315750D+000.000000D+000.000000D+000.000000D+00*
 *                                              21   S           1.00                                                              *
+                                                                      0.121950D+000.147077D+000.000000D+000.000000D+000.000000D+00 
 *                                          22- 24   P           1.00                                                              *
+                                                                      0.800000D+000.000000D+000.107846D+010.000000D+000.000000D+00 
 *---------------------------------------------------------------------------------------------------------------------------------*
 *     H     -1.79837 -1.03829 -0.00023                                                                                            *
+                                               25   S           1.00                                                               
+                                                                      0.130107D+020.163490D+000.000000D+000.000000D+000.000000D+00 
 *                                                                     0.196226D+010.277352D+000.000000D+000.000000D+000.000000D+00*
 *                                                                     0.444538D+000.315750D+000.000000D+000.000000D+000.000000D+00*
 *                                              26   S           1.00                                                              *
+                                                                      0.121950D+000.147077D+000.000000D+000.000000D+000.000000D+00 
 *                                          27- 29   P           1.00                                                              *
+                                                                      0.800000D+000.000000D+000.107846D+010.000000D+000.000000D+00 
 ***********************************************************************************************************************************
 There are    20 symmetry adapted cartesian basis functions of A'  symmetry.
 There are    10 symmetry adapted cartesian basis functions of A"  symmetry.
 There are    19 symmetry adapted basis functions of A'  symmetry.
 There are    10 symmetry adapted basis functions of A"  symmetry.
    29 basis functions,    46 primitive gaussians,    30 cartesian basis functions
     5 alpha electrons        4 beta electrons
       nuclear repulsion energy         9.5021891381 Hartrees.
 IExCor=  404 DFT=T Ex=B Corr=P86 ExCW=0 ScaHFX=  0.000000
 ScaDFX=  1.000000  1.000000  1.000000  1.000000 ScalE2=  1.000000  1.000000
 IRadAn=      5 IRanWt=     -1 IRanGd=            0 ICorTp=0 IEmpDi=  4
 NAtoms=    4 NActive=    4 NUniq=    2 SFac= 4.00D+00 NAtFMM=   60 NAOKFM=F Big=F
 Integral buffers will be    131072 words long.
 Raffenetti 2 integral format.
 Two-electron integral symmetry is turned on.
 Standard density basis: W06 (5D, 7F)
    82 Density fitting functions
 Density basis set in the form of general basis input (Coulomb normalization):
      1 0
 S   7 1.00       0.000000000000
      0.1861091633D+04  0.1630432275D-02
      0.6429939764D+03  0.6165022455D-02
      0.2351105725D+03  0.3437464972D-01
      0.9070288940D+02  0.1300917169D+00
      0.3677945520D+02  0.3381150662D+00
      0.1560462730D+02  0.4227614567D+00
      0.6890729400D+01  0.1055268299D+00
 S   1 1.00       0.000000000000
      0.3147885000D+01 -0.1000000000D+01
 S   1 1.00       0.000000000000
      0.1477728700D+01  0.1000000000D+01
 S   1 1.00       0.000000000000
      0.7076466000D+00  0.1000000000D+01
 S   1 1.00       0.000000000000
      0.3430122000D+00  0.1000000000D+01
 S   1 1.00       0.000000000000
      0.1669453000D+00  0.1000000000D+01
 P   2 1.00       0.000000000000
      0.1354728920D+02 -0.5516210369D+00
      0.5466941900D+01 -0.4848245610D+00
 P   1 1.00       0.000000000000
      0.2175172100D+01  0.1000000000D+01
 P   1 1.00       0.000000000000
      0.8582194000D+00  0.1000000000D+01
 P   1 1.00       0.000000000000
      0.3376720000D+00  0.1000000000D+01
 D   2 1.00       0.000000000000
      0.5928725300D+01 -0.2191848255D+00
      0.1980920900D+01 -0.8002209528D+00
 D   1 1.00       0.000000000000
      0.8055417000D+00 -0.1000000000D+01
 D   1 1.00       0.000000000000
      0.3531244000D+00 -0.1000000000D+01
 F   2 1.00       0.000000000000
      0.1675562600D+01  0.4584544753D+00
      0.5997536000D+00  0.6032297392D+00
 G   1 1.00       0.000000000000
      0.1002460000D+01 -0.1000000000D+01
 ****
      2 0
 S   3 1.00       0.000000000000
      0.1567529270D+02  0.3261158972D-01
      0.3606357800D+01  0.2298046837D+00
      0.1208001600D+01  0.7572083240D+00
 S   1 1.00       0.000000000000
      0.4726794000D+00  0.1000000000D+01
 S   1 1.00       0.000000000000
      0.2018100000D+00  0.1000000000D+01
 P   2 1.00       0.000000000000
      0.2028136500D+01  0.3618361986D+00
      0.5358730000D+00  0.7039303088D+00
 D   1 1.00       0.000000000000
      0.2216512400D+01  0.1000000000D+01
 ****
      3 0
 S   3 1.00       0.000000000000
      0.1567529270D+02  0.3261158972D-01
      0.3606357800D+01  0.2298046837D+00
      0.1208001600D+01  0.7572083240D+00
 S   1 1.00       0.000000000000
      0.4726794000D+00  0.1000000000D+01
 S   1 1.00       0.000000000000
      0.2018100000D+00  0.1000000000D+01
 P   2 1.00       0.000000000000
      0.2028136500D+01  0.3618361986D+00
      0.5358730000D+00  0.7039303088D+00
 D   1 1.00       0.000000000000
      0.2216512400D+01  0.1000000000D+01
 ****
      4 0
 S   3 1.00       0.000000000000
      0.1567529270D+02  0.3261158972D-01
      0.3606357800D+01  0.2298046837D+00
      0.1208001600D+01  0.7572083240D+00
 S   1 1.00       0.000000000000
      0.4726794000D+00  0.1000000000D+01
 S   1 1.00       0.000000000000
      0.2018100000D+00  0.1000000000D+01
 P   2 1.00       0.000000000000
      0.2028136500D+01  0.3618361986D+00
      0.5358730000D+00  0.7039303088D+00
 D   1 1.00       0.000000000000
      0.2216512400D+01  0.1000000000D+01
 ****

 There are    82 symmetry adapted density basis functions of A   symmetry.
 Leave Link  301 at Fri Jan 12 21:10:21 2018, MaxMem=    33554432 cpu:         0.2
 (Enter /home/chemsoft/gaussian/g09e01/g09/l302.exe)
 NPDir=0 NMtPBC=     1 NCelOv=     1 NCel=       1 NClECP=     1 NCelD=      1
         NCelK=      1 NCelE2=     1 NClLst=     1 CellRange=     0.0.
 One-electron integrals computed using PRISM.
 One-electron integral symmetry used in STVInt
   6 Symmetry operations used in ECPInt.
 ECPInt:  NShTT=     120 NPrTT=     400 LenC2=     121 LenP2D=     391.
 LDataN:  DoStor=T MaxTD1= 4 Len=   56
 NBasis=    29 RedAO= T EigKep=  2.80D-02  NBF=    19    10
 NBsUse=    29 1.00D-06 EigRej= -1.00D+00 NBFU=    19    10
 Precomputing XC quadrature grid using
 IXCGrd= 4 IRadAn=           5 IRanWt=          -1 IRanGd=           0 AccXCQ= 0.00D+00.
 Generated NRdTot=       0 NPtTot=           0 NUsed=           0 NTot=          32
 NSgBfM=    30    30    30    30    30 MxSgAt=     4 MxSgA2=     4.
 Leave Link  302 at Fri Jan 12 21:10:21 2018, MaxMem=    33554432 cpu:         0.2
 (Enter /home/chemsoft/gaussian/g09e01/g09/l303.exe)
 DipDrv:  MaxL=1.
 Leave Link  303 at Fri Jan 12 21:10:21 2018, MaxMem=    33554432 cpu:         0.1
 (Enter /home/chemsoft/gaussian/g09e01/g09/l401.exe)
 Initial guess from the checkpoint file:  "methyl.df-bp86svp.chk"
 B after Tr=     0.000000   -0.000000    0.000000
         Rot=    1.000000   -0.000000    0.000000   -0.000000 Ang=   0.00 deg.
 Guess basis will be translated and rotated to current coordinates.
 JPrj=2 DoOrth=T DoCkMO=T.
 Initial guess orbital symmetries:
 Alpha Orbitals:
       Occupied  (?A) (?A) (?B) (?B) (A1)
       Virtual   (?A) (?B) (?B) (?B) (?B) (?A) (A1) (?A) (?B) (?B)
                 (?B) (?B) (?A) (?B) (?B) (A1) (?A) (?B) (?B) (?B)
                 (?B) (?A) (?B) (?B)
 Beta  Orbitals:
       Occupied  (?A) (?A) (?B) (?B)
       Virtual   (A1) (?A) (?B) (?B) (?B) (?B) (?A) (A1) (?A) (?B)
                 (?B) (?C) (?C) (?A) (?B) (?B) (A1) (?A) (?B) (?B)
                 (?C) (?C) (?A) (?B) (?B)
 Initial guess <Sx>= 0.0000 <Sy>= 0.0000 <Sz>= 0.5000 <S**2>= 0.7535 S= 0.5017
 Leave Link  401 at Fri Jan 12 21:10:21 2018, MaxMem=    33554432 cpu:         0.2
 (Enter /home/chemsoft/gaussian/g09e01/g09/l601.exe)
 Copying SCF densities to generalized density rwf, IOpCl= 1 IROHF=0.

 **********************************************************************

            Population analysis using the SCF density.

 **********************************************************************

 Orbital symmetries:
 Alpha Orbitals:
       Occupied  (?A) (?A) (?B) (?B) (A1)
       Virtual   (?A) (?B) (?B) (?B) (?B) (?A) (A1) (?A) (?B) (?B)
                 (?B) (?B) (?A) (?B) (?B) (A1) (?A) (?B) (?B) (?B)
                 (?B) (?A) (?B) (?B)
 Beta  Orbitals:
       Occupied  (?A) (?A) (?B) (?B)
       Virtual   (A1) (?A) (?B) (?B) (?B) (?B) (?A) (A1) (?A) (?B)
                 (?B) (?C) (?C) (?A) (?B) (?B) (A1) (?A) (?B) (?B)
                 (?C) (?C) (?A) (?B) (?B)
 Unable to determine electronic state:  an orbital has unidentified symmetry.
 Alpha  occ. eigenvalues --   -9.93027  -0.60669  -0.37058  -0.37058  -0.19428
 Alpha virt. eigenvalues --    0.05685   0.12047   0.12047   0.40678   0.40678
 Alpha virt. eigenvalues --    0.42366   0.43409   0.58494   0.63116   0.63116
 Alpha virt. eigenvalues --    1.12993   1.12993   1.40168   1.52557   1.52557
 Alpha virt. eigenvalues --    1.65054   1.73151   2.11831   2.11831   2.12892
 Alpha virt. eigenvalues --    2.12892   2.72249   2.80022   2.80022
  Beta  occ. eigenvalues --   -9.91652  -0.57364  -0.36082  -0.36082
  Beta virt. eigenvalues --   -0.09596   0.06952   0.12525   0.12525   0.41461
  Beta virt. eigenvalues --    0.41461   0.45628   0.51763   0.61349   0.63991
  Beta virt. eigenvalues --    0.63991   1.15485   1.15485   1.39707   1.52783
  Beta virt. eigenvalues --    1.52783   1.66355   1.81807   2.13203   2.13203
  Beta virt. eigenvalues --    2.17430   2.17430   2.74304   2.81075   2.81075
     Alpha Molecular Orbital Coefficients:
                           1         2         3         4         5
                           O         O         O         O      (A1)--O
     Eigenvalues --    -9.93027  -0.60669  -0.37058  -0.37058  -0.19428
   1 1   C  1S          0.98780  -0.26092   0.00000  -0.00000  -0.00004
   2        2S          0.05005   0.51932   0.00000   0.00000   0.00010
   3        3S         -0.03248   0.22292   0.00000  -0.00000   0.00015
   4        4PX         0.00000   0.00000   0.45264   0.00000   0.00000
   5        4PY        -0.00000   0.00000   0.00000   0.45264   0.00000
   6        4PZ        -0.00000  -0.00003   0.00000   0.00000   0.61196
   7        5PX         0.00000   0.00000   0.17590   0.00000   0.00000
   8        5PY        -0.00000  -0.00000   0.00000   0.17590  -0.00000
   9        5PZ         0.00000  -0.00001   0.00000   0.00000   0.51214
  10        6D 0       -0.00260   0.00555   0.00000   0.00000   0.00000
  11        6D+1        0.00000   0.00000  -0.00001   0.00000   0.00000
  12        6D-1       -0.00000  -0.00000   0.00000  -0.00001  -0.00000
  13        6D+2        0.00000   0.00000   0.00000  -0.01581   0.00000
  14        6D-2        0.00000   0.00000  -0.01581   0.00000   0.00000
  15 2   H  1S         -0.00462   0.18441   0.00000   0.36519  -0.00005
  16        2S          0.00740   0.02324   0.00000   0.13926  -0.00003
  17        3PX         0.00000   0.00000   0.01264   0.00000   0.00000
  18        3PY         0.00315  -0.02044   0.00000  -0.00993   0.00000
  19        3PZ        -0.00000   0.00000   0.00000   0.00000   0.01856
  20 3   H  1S         -0.00462   0.18441   0.31626  -0.18259  -0.00005
  21        2S          0.00740   0.02324   0.12060  -0.06963  -0.00003
  22        3PX         0.00273  -0.01770  -0.00429   0.00977   0.00000
  23        3PY        -0.00157   0.01022   0.00977   0.00700  -0.00000
  24        3PZ        -0.00000   0.00000   0.00000  -0.00000   0.01856
  25 4   H  1S         -0.00462   0.18441  -0.31626  -0.18259  -0.00005
  26        2S          0.00740   0.02324  -0.12060  -0.06963  -0.00003
  27        3PX        -0.00273   0.01770  -0.00429  -0.00977  -0.00000
  28        3PY        -0.00157   0.01022  -0.00977   0.00700  -0.00000
  29        3PZ        -0.00000   0.00000  -0.00000  -0.00000   0.01856
                           6         7         8         9        10
                           V         V         V         V         V
     Eigenvalues --     0.05685   0.12047   0.12047   0.40678   0.40678
   1 1   C  1S         -0.17131   0.00000   0.00000  -0.00000   0.00000
   2        2S          0.38209  -0.00000   0.00000   0.00000   0.00000
   3        3S          2.23061  -0.00000   0.00000  -0.00000   0.00000
   4        4PX         0.00000   0.00000  -0.41174   0.00000  -0.30329
   5        4PY        -0.00000  -0.41174   0.00000  -0.30329   0.00000
   6        4PZ        -0.00009  -0.00000   0.00000   0.00000   0.00000
   7        5PX         0.00000   0.00000  -1.22952   0.00000   1.39584
   8        5PY        -0.00000  -1.22952   0.00000   1.39584   0.00000
   9        5PZ        -0.00028   0.00000   0.00000  -0.00000   0.00000
  10        6D 0        0.01892  -0.00000   0.00000   0.00000   0.00000
  11        6D+1        0.00000   0.00000  -0.00000   0.00000   0.00003
  12        6D-1       -0.00000  -0.00000   0.00000   0.00003   0.00000
  13        6D+2       -0.00000  -0.01871   0.00000   0.09340   0.00000
  14        6D-2        0.00000   0.00000  -0.01871   0.00000   0.09340
  15 2   H  1S         -0.10464   0.12996   0.00000  -0.82953   0.00000
  16        2S         -1.11870   1.85997   0.00000  -0.09685   0.00000
  17        3PX         0.00000   0.00000  -0.01820   0.00000   0.08490
  18        3PY        -0.01441   0.01474   0.00000   0.01219   0.00000
  19        3PZ         0.00000  -0.00001   0.00000   0.00001   0.00000
  20 3   H  1S         -0.10464  -0.06498   0.11254   0.41476  -0.71839
  21        2S         -1.11870  -0.92998   1.61078   0.04842  -0.08387
  22        3PX        -0.01248  -0.01426   0.00651   0.03148   0.03037
  23        3PY         0.00720  -0.00996  -0.01426   0.06672   0.03148
  24        3PZ         0.00000   0.00000  -0.00001  -0.00001   0.00001
  25 4   H  1S         -0.10464  -0.06498  -0.11254   0.41476   0.71839
  26        2S         -1.11870  -0.92998  -1.61078   0.04842   0.08387
  27        3PX         0.01248   0.01426   0.00651  -0.03148   0.03037
  28        3PY         0.00720  -0.00996   0.01426   0.06672  -0.03148
  29        3PZ         0.00000   0.00000   0.00001  -0.00001  -0.00001
                          11        12        13        14        15
                           V      (A1)--V      V         V         V
     Eigenvalues --     0.42366   0.43409   0.58494   0.63116   0.63116
   1 1   C  1S          0.06932   0.00006   0.29621  -0.00000   0.00000
   2        2S         -0.87614  -0.00017  -1.84505   0.00000   0.00000
   3        3S          2.49762  -0.00013   4.31394  -0.00000   0.00000
   4        4PX         0.00000   0.00000   0.00000   0.00000  -0.92871
   5        4PY        -0.00000  -0.00000   0.00000   0.92871   0.00000
   6        4PZ        -0.00029  -1.00015   0.00027  -0.00000   0.00000
   7        5PX         0.00000   0.00000   0.00000   0.00000   1.68043
   8        5PY         0.00000   0.00000  -0.00000  -1.68043   0.00000
   9        5PZ        -0.00000   1.07302  -0.00048   0.00000   0.00000
  10        6D 0        0.11458  -0.00004  -0.09096   0.00000   0.00000
  11        6D+1        0.00000   0.00000   0.00000   0.00000  -0.00005
  12        6D-1       -0.00000  -0.00000  -0.00000   0.00005   0.00000
  13        6D+2        0.00000  -0.00000  -0.00000   0.13548   0.00000
  14        6D-2        0.00000   0.00000   0.00000   0.00000  -0.13548
  15 2   H  1S         -0.64839   0.00025   0.39821  -0.57519   0.00000
  16        2S         -0.27511  -0.00005  -1.43925   1.84515   0.00000
  17        3PX         0.00000   0.00000   0.00000   0.00000  -0.05552
  18        3PY        -0.02559   0.00000   0.09248  -0.16052   0.00000
  19        3PZ        -0.00003  -0.02288  -0.00001   0.00004   0.00000
  20 3   H  1S         -0.64839   0.00025   0.39821   0.28759   0.49813
  21        2S         -0.27511  -0.00005  -1.43925  -0.92258  -1.59795
  22        3PX        -0.02216   0.00000   0.08009   0.09354   0.10651
  23        3PY         0.01280  -0.00000  -0.04624   0.00151  -0.09354
  24        3PZ        -0.00003  -0.02288  -0.00001  -0.00002  -0.00003
  25 4   H  1S         -0.64839   0.00025   0.39821   0.28759  -0.49813
  26        2S         -0.27511  -0.00005  -1.43925  -0.92258   1.59795
  27        3PX         0.02216  -0.00000  -0.08009  -0.09354   0.10651
  28        3PY         0.01280  -0.00000  -0.04624   0.00151   0.09354
  29        3PZ        -0.00003  -0.02288  -0.00001  -0.00002   0.00003
                          16        17        18        19        20
                           V         V         V         V         V
     Eigenvalues --     1.12993   1.12993   1.40168   1.52557   1.52557
   1 1   C  1S         -0.00000   0.00000   0.00000   0.00000   0.00000
   2        2S          0.00000   0.00000   0.00000   0.00000   0.00000
   3        3S         -0.00000   0.00000   0.00000  -0.00000   0.00000
   4        4PX         0.00000   0.00001   0.00000   0.00000  -0.17548
   5        4PY         0.00001   0.00000   0.00000  -0.17548   0.00000
   6        4PZ        -0.00000   0.00000   0.00000   0.00000   0.00000
   7        5PX         0.00000   0.00017   0.00000   0.00000   1.07850
   8        5PY         0.00017   0.00000   0.00000   1.07850   0.00000
   9        5PZ        -0.00000   0.00000   0.00000   0.00000   0.00000
  10        6D 0       -0.00000   0.00000   0.00000   0.00000   0.00000
  11        6D+1        0.00000   0.44453   0.00000   0.00000  -0.00004
  12        6D-1        0.44453   0.00000   0.00000  -0.00004   0.00000
  13        6D+2       -0.00015   0.00000   0.00000  -0.33616   0.00000
  14        6D-2        0.00000  -0.00015  -0.00000   0.00000  -0.33616
  15 2   H  1S         -0.00007   0.00000   0.00000  -0.49318   0.00000
  16        2S         -0.00007   0.00000   0.00000  -0.33677   0.00000
  17        3PX         0.00000  -0.00022   0.58771   0.00000  -0.64205
  18        3PY         0.00008   0.00000   0.00000  -0.33279   0.00000
  19        3PZ         0.60028   0.00000   0.00000  -0.00026   0.00000
  20 3   H  1S          0.00004  -0.00006  -0.00000   0.24659  -0.42710
  21        2S          0.00003  -0.00006  -0.00000   0.16839  -0.29165
  22        3PX        -0.00013   0.00001  -0.29385  -0.13392  -0.41010
  23        3PY        -0.00014  -0.00013  -0.50897  -0.56474  -0.13392
  24        3PZ        -0.30014   0.51986   0.00000   0.00013  -0.00022
  25 4   H  1S          0.00004   0.00006   0.00000   0.24659   0.42710
  26        2S          0.00003   0.00006   0.00000   0.16839   0.29165
  27        3PX         0.00013   0.00001  -0.29385   0.13392  -0.41010
  28        3PY        -0.00014   0.00013   0.50897  -0.56474   0.13392
  29        3PZ        -0.30014  -0.51986  -0.00000   0.00013   0.00022
                          21        22        23        24        25
                        (A1)--V      V         V         V         V
     Eigenvalues --     1.65054   1.73151   2.11831   2.11831   2.12892
   1 1   C  1S          0.00014  -0.08278   0.00000   0.00000   0.00000
   2        2S         -0.00131   0.70093   0.00000   0.00000   0.00000
   3        3S          0.00163  -0.54097   0.00000   0.00000   0.00000
   4        4PX         0.00000   0.00000   0.00995   0.00000   0.68630
   5        4PY         0.00000  -0.00000   0.00000   0.00995   0.00000
   6        4PZ        -0.21347  -0.00049   0.00000  -0.00000   0.00000
   7        5PX         0.00000   0.00000   0.01018   0.00000   0.71939
   8        5PY         0.00000  -0.00000   0.00000   0.01018   0.00000
   9        5PZ        -0.41023  -0.00066   0.00000   0.00000   0.00000
  10        6D 0       -0.00130   0.75546   0.00000  -0.00000   0.00000
  11        6D+1        0.00000   0.00000   1.00007   0.00000  -0.01461
  12        6D-1        0.00000  -0.00000   0.00000   1.00007   0.00000
  13        6D+2       -0.00000   0.00000   0.00000   0.00498   0.00000
  14        6D-2        0.00000   0.00000   0.00498   0.00000   0.35036
  15 2   H  1S         -0.00040   0.15572   0.00000  -0.00364   0.00000
  16        2S         -0.00016  -0.01378   0.00000  -0.01002   0.00000
  17        3PX         0.00000   0.00000  -0.00974   0.00000  -0.68531
  18        3PY        -0.00047   0.35025   0.00000   0.01032   0.00000
  19        3PZ         0.65069   0.00114   0.00000  -0.66540   0.00000
  20 3   H  1S         -0.00040   0.15572  -0.00315   0.00182  -0.22841
  21        2S         -0.00016  -0.01378  -0.00868   0.00501  -0.60290
  22        3PX        -0.00040   0.30332   0.00530  -0.00868   0.36647
  23        3PY         0.00023  -0.17512  -0.00868  -0.00472  -0.60725
  24        3PZ         0.65069   0.00114  -0.57626   0.33270   0.00820
  25 4   H  1S         -0.00040   0.15572   0.00315   0.00182   0.22841
  26        2S         -0.00016  -0.01378   0.00868   0.00501   0.60290
  27        3PX         0.00040  -0.30332   0.00530   0.00868   0.36647
  28        3PY         0.00023  -0.17512   0.00868  -0.00472   0.60725
  29        3PZ         0.65069   0.00114   0.57626   0.33270  -0.00820
                          26        27        28        29
                           V         V         V         V
     Eigenvalues --     2.12892   2.72249   2.80022   2.80022
   1 1   C  1S          0.00000  -0.25977   0.00000   0.00000
   2        2S          0.00000   1.51914   0.00000  -0.00000
   3        3S         -0.00000   1.14770   0.00000  -0.00000
   4        4PX         0.00000   0.00000  -1.03014   0.00000
   5        4PY         0.68630  -0.00000   0.00000  -1.03014
   6        4PZ        -0.00000  -0.00028   0.00000  -0.00000
   7        5PX         0.00000   0.00000  -0.46781   0.00000
   8        5PY         0.71939  -0.00000   0.00000  -0.46781
   9        5PZ        -0.00000  -0.00012   0.00000   0.00000
  10        6D 0        0.00000  -1.02668   0.00000   0.00000
  11        6D+1        0.00000   0.00000   0.00030   0.00000
  12        6D-1       -0.01461  -0.00000   0.00000   0.00030
  13        6D+2        0.35036   0.00000   0.00000   1.36811
  14        6D-2        0.00000   0.00000   1.36811   0.00000
  15 2   H  1S         -0.26375  -0.73084   0.00000   0.99739
  16        2S         -0.69617  -0.35512   0.00000   0.31752
  17        3PX         0.00000   0.00000  -0.29950   0.00000
  18        3PY         0.71707   0.89016   0.00000  -1.06081
  19        3PZ         0.00946  -0.00021   0.00000   0.00020
  20 3   H  1S          0.13187  -0.73084   0.86377  -0.49870
  21        2S          0.34809  -0.35512   0.27498  -0.15876
  22        3PX        -0.60725   0.77090  -0.87048   0.32966
  23        3PY        -0.33472  -0.44508   0.32966  -0.48982
  24        3PZ        -0.00473  -0.00021   0.00017  -0.00010
  25 4   H  1S          0.13187  -0.73084  -0.86377  -0.49870
  26        2S          0.34809  -0.35512  -0.27498  -0.15876
  27        3PX         0.60725  -0.77090  -0.87048  -0.32966
  28        3PY        -0.33472  -0.44508  -0.32966  -0.48982
  29        3PZ        -0.00473  -0.00021  -0.00017  -0.00010
     Beta Molecular Orbital Coefficients:
                           1         2         3         4         5
                           O         O         O         O      (A1)--V
     Eigenvalues --    -9.91652  -0.57364  -0.36082  -0.36082  -0.09596
   1 1   C  1S          0.98831  -0.25037  -0.00000   0.00000  -0.00005
   2        2S          0.04781   0.48923   0.00000   0.00000   0.00010
   3        3S         -0.03019   0.17319  -0.00000   0.00000   0.00017
   4        4PX         0.00000   0.00000   0.00000   0.43461   0.00000
   5        4PY         0.00000   0.00000   0.43461   0.00000   0.00000
   6        4PZ        -0.00000  -0.00005   0.00000   0.00000   0.53968
   7        5PX         0.00000   0.00000   0.00000   0.15184   0.00000
   8        5PY        -0.00000  -0.00000   0.15184   0.00000  -0.00000
   9        5PZ         0.00000  -0.00001   0.00000   0.00000   0.57623
  10        6D 0       -0.00342  -0.01815   0.00000   0.00000  -0.00001
  11        6D+1        0.00000   0.00000   0.00000  -0.00001   0.00000
  12        6D-1        0.00000  -0.00000  -0.00001   0.00000  -0.00000
  13        6D+2        0.00000   0.00000  -0.01510   0.00000   0.00000
  14        6D-2        0.00000   0.00000   0.00000  -0.01510   0.00000
  15 2   H  1S         -0.00459   0.20356   0.38320   0.00000  -0.00004
  16        2S          0.00688   0.04323   0.16202   0.00000  -0.00003
  17        3PX         0.00000   0.00000   0.00000   0.01425   0.00000
  18        3PY         0.00303  -0.02041  -0.01112   0.00000   0.00000
  19        3PZ        -0.00000   0.00000   0.00000   0.00000   0.02783
  20 3   H  1S         -0.00459   0.20356  -0.19160   0.33186  -0.00004
  21        2S          0.00688   0.04323  -0.08101   0.14031  -0.00003
  22        3PX         0.00262  -0.01767   0.01099  -0.00478   0.00000
  23        3PY        -0.00151   0.01020   0.00791   0.01099  -0.00000
  24        3PZ        -0.00000   0.00000  -0.00000   0.00000   0.02783
  25 4   H  1S         -0.00459   0.20356  -0.19160  -0.33186  -0.00004
  26        2S          0.00688   0.04323  -0.08101  -0.14031  -0.00003
  27        3PX        -0.00262   0.01767  -0.01099  -0.00478  -0.00000
  28        3PY        -0.00151   0.01020   0.00791  -0.01099  -0.00000
  29        3PZ        -0.00000   0.00000  -0.00000  -0.00000   0.02783
                           6         7         8         9        10
                           V         V         V         V         V
     Eigenvalues --     0.06952   0.12525   0.12525   0.41461   0.41461
   1 1   C  1S         -0.17173   0.00000   0.00000  -0.00000   0.00000
   2        2S          0.35832  -0.00000   0.00000   0.00000   0.00000
   3        3S          2.31532  -0.00000   0.00000  -0.00000   0.00000
   4        4PX         0.00000   0.00000  -0.40626   0.00000  -0.27336
   5        4PY        -0.00000  -0.40626   0.00000  -0.27336   0.00000
   6        4PZ        -0.00009  -0.00000   0.00000   0.00000   0.00000
   7        5PX         0.00000   0.00000  -1.24359   0.00000   1.35350
   8        5PY        -0.00000  -1.24359   0.00000   1.35350   0.00000
   9        5PZ        -0.00027   0.00000   0.00000   0.00000   0.00000
  10        6D 0       -0.00575  -0.00000   0.00000   0.00000   0.00000
  11        6D+1        0.00000   0.00000   0.00000   0.00000   0.00002
  12        6D-1       -0.00000   0.00000   0.00000   0.00002   0.00000
  13        6D+2        0.00000  -0.01732   0.00000   0.09509   0.00000
  14        6D-2        0.00000   0.00000  -0.01732   0.00000   0.09509
  15 2   H  1S         -0.07756   0.10964   0.00000  -0.84101   0.00000
  16        2S         -1.15242   1.87589   0.00000  -0.05387   0.00000
  17        3PX         0.00000   0.00000  -0.01954   0.00000   0.09108
  18        3PY        -0.01529   0.01714   0.00000   0.00910   0.00000
  19        3PZ        -0.00000  -0.00001   0.00000   0.00001   0.00000
  20 3   H  1S         -0.07756  -0.05482   0.09495   0.42050  -0.72833
  21        2S         -1.15242  -0.93795   1.62457   0.02694  -0.04665
  22        3PX        -0.01324  -0.01588   0.00797   0.03550   0.02959
  23        3PY         0.00764  -0.01037  -0.01588   0.07058   0.03550
  24        3PZ        -0.00000   0.00000  -0.00001  -0.00001   0.00001
  25 4   H  1S         -0.07756  -0.05482  -0.09495   0.42050   0.72833
  26        2S         -1.15242  -0.93795  -1.62457   0.02694   0.04665
  27        3PX         0.01324   0.01588   0.00797  -0.03550   0.02959
  28        3PY         0.00764  -0.01037   0.01588   0.07058  -0.03550
  29        3PZ        -0.00000   0.00000   0.00001  -0.00001  -0.00001
                          11        12        13        14        15
                           V      (A1)--V      V         V         V
     Eigenvalues --     0.45628   0.51763   0.61349   0.63991   0.63991
   1 1   C  1S          0.03994   0.00008   0.30657  -0.00000   0.00000
   2        2S         -0.73998  -0.00042  -1.90226   0.00000   0.00000
   3        3S          2.28657   0.00050   4.38051  -0.00000   0.00000
   4        4PX         0.00000   0.00000   0.00000   0.00000  -0.93910
   5        4PY        -0.00000  -0.00000   0.00000   0.93910   0.00000
   6        4PZ        -0.00002  -1.03752   0.00027  -0.00000   0.00000
   7        5PX         0.00000   0.00000   0.00000   0.00000   1.69974
   8        5PY         0.00000   0.00000  -0.00000  -1.69974   0.00000
   9        5PZ        -0.00028   1.03895  -0.00049   0.00000   0.00000
  10        6D 0        0.10066   0.00001  -0.05314   0.00000   0.00000
  11        6D+1        0.00000   0.00000   0.00000   0.00000  -0.00003
  12        6D-1        0.00000  -0.00000  -0.00000   0.00003   0.00000
  13        6D+2       -0.00000  -0.00000  -0.00000   0.13370   0.00000
  14        6D-2        0.00000   0.00000   0.00000   0.00000  -0.13370
  15 2   H  1S         -0.67650   0.00008   0.36319  -0.54967   0.00000
  16        2S         -0.20883  -0.00010  -1.42243   1.82847   0.00000
  17        3PX         0.00000   0.00000   0.00000   0.00000  -0.05342
  18        3PY        -0.03605  -0.00001   0.09689  -0.16811   0.00000
  19        3PZ        -0.00002  -0.02845  -0.00001   0.00003   0.00000
  20 3   H  1S         -0.67650   0.00008   0.36319   0.27483   0.47602
  21        2S         -0.20883  -0.00010  -1.42243  -0.91424  -1.58351
  22        3PX        -0.03122  -0.00001   0.08391   0.09593   0.11273
  23        3PY         0.01803   0.00000  -0.04844  -0.00196  -0.09593
  24        3PZ        -0.00002  -0.02845  -0.00001  -0.00002  -0.00003
  25 4   H  1S         -0.67650   0.00008   0.36319   0.27483  -0.47602
  26        2S         -0.20883  -0.00010  -1.42243  -0.91424   1.58351
  27        3PX         0.03122   0.00001  -0.08391  -0.09593   0.11273
  28        3PY         0.01803   0.00000  -0.04844  -0.00196   0.09593
  29        3PZ        -0.00002  -0.02845  -0.00001  -0.00002   0.00003
                          16        17        18        19        20
                           V         V         V         V         V
     Eigenvalues --     1.15485   1.15485   1.39707   1.52783   1.52783
   1 1   C  1S         -0.00000   0.00000   0.00000   0.00000   0.00000
   2        2S          0.00000   0.00000   0.00000   0.00000  -0.00000
   3        3S         -0.00000   0.00000   0.00000   0.00000   0.00000
   4        4PX         0.00000   0.00001  -0.00000  -0.18172   0.00000
   5        4PY         0.00001   0.00000   0.00000   0.00000  -0.18172
   6        4PZ        -0.00000   0.00000   0.00000   0.00000   0.00000
   7        5PX         0.00000   0.00018   0.00000   1.09092   0.00000
   8        5PY         0.00018   0.00000   0.00000   0.00000   1.09092
   9        5PZ         0.00000   0.00000   0.00000   0.00000   0.00000
  10        6D 0       -0.00000   0.00000   0.00000   0.00000   0.00000
  11        6D+1        0.00000   0.40947  -0.00000  -0.00004   0.00000
  12        6D-1        0.40947   0.00000   0.00000   0.00000  -0.00004
  13        6D+2       -0.00015   0.00000   0.00000   0.00000  -0.32813
  14        6D-2        0.00000  -0.00015  -0.00000  -0.32813   0.00000
  15 2   H  1S         -0.00009   0.00000   0.00000   0.00000  -0.48883
  16        2S         -0.00006   0.00000   0.00000   0.00000  -0.34458
  17        3PX         0.00000  -0.00022   0.58771  -0.64564   0.00000
  18        3PY         0.00008   0.00000   0.00000   0.00000  -0.33531
  19        3PZ         0.62307   0.00000   0.00000   0.00000  -0.00026
  20 3   H  1S          0.00005  -0.00008  -0.00000  -0.42334   0.24441
  21        2S          0.00003  -0.00005  -0.00000  -0.29842   0.17229
  22        3PX        -0.00013   0.00000  -0.29385  -0.41289  -0.13438
  23        3PY        -0.00015  -0.00013  -0.50897  -0.13438  -0.56805
  24        3PZ        -0.31153   0.53959   0.00000  -0.00023   0.00013
  25 4   H  1S          0.00005   0.00008   0.00000   0.42334   0.24441
  26        2S          0.00003   0.00005   0.00000   0.29842   0.17229
  27        3PX         0.00013   0.00000  -0.29385  -0.41289   0.13438
  28        3PY        -0.00015   0.00013   0.50897   0.13438  -0.56805
  29        3PZ        -0.31153  -0.53959  -0.00000   0.00023   0.00013
                          21        22        23        24        25
                        (A1)--V      V         V         V         V
     Eigenvalues --     1.66355   1.81807   2.13203   2.13203   2.17430
   1 1   C  1S          0.00010  -0.11043  -0.00000   0.00000   0.00000
   2        2S         -0.00083   0.82932   0.00000   0.00000   0.00000
   3        3S          0.00117  -0.53210  -0.00000   0.00000   0.00000
   4        4PX         0.00000   0.00000   0.00000   0.69506  -0.00241
   5        4PY        -0.00000   0.00000   0.69506   0.00000   0.00000
   6        4PZ        -0.22948  -0.00032  -0.00000   0.00000   0.00000
   7        5PX         0.00000   0.00000   0.00000   0.71757  -0.00276
   8        5PY         0.00000  -0.00000   0.71757   0.00000   0.00000
   9        5PZ        -0.41291  -0.00031  -0.00000   0.00000   0.00000
  10        6D 0       -0.00061   0.71362  -0.00000   0.00000   0.00000
  11        6D+1        0.00000   0.00000   0.00000   0.00345   1.01503
  12        6D-1        0.00000  -0.00000   0.00345   0.00000   0.00000
  13        6D+2       -0.00000   0.00000   0.34950   0.00000   0.00000
  14        6D-2        0.00000   0.00000   0.00000   0.34950  -0.00134
  15 2   H  1S         -0.00021   0.10016  -0.26815   0.00000   0.00000
  16        2S         -0.00017  -0.01101  -0.69420   0.00000   0.00000
  17        3PX         0.00000   0.00000   0.00000  -0.68213   0.00259
  18        3PY        -0.00019   0.38503   0.71962   0.00000   0.00000
  19        3PZ         0.65015   0.00056  -0.00244   0.00000   0.00000
  20 3   H  1S         -0.00021   0.10016   0.13408  -0.23223   0.00096
  21        2S         -0.00017  -0.01101   0.34710  -0.60120   0.00217
  22        3PX        -0.00017   0.33344  -0.60697   0.36918  -0.00129
  23        3PY         0.00010  -0.19251  -0.33169  -0.60697   0.00224
  24        3PZ         0.65015   0.00056   0.00122  -0.00211  -0.55788
  25 4   H  1S         -0.00021   0.10016   0.13408   0.23223  -0.00096
  26        2S         -0.00017  -0.01101   0.34710   0.60120  -0.00217
  27        3PX         0.00017  -0.33344   0.60697   0.36918  -0.00129
  28        3PY         0.00010  -0.19251  -0.33169   0.60697  -0.00224
  29        3PZ         0.65015   0.00056   0.00122   0.00211   0.55788
                          26        27        28        29
                           V         V         V         V
     Eigenvalues --     2.17430   2.74304   2.81075   2.81075
   1 1   C  1S         -0.00000  -0.25168   0.00000   0.00000
   2        2S          0.00000   1.47145   0.00000  -0.00000
   3        3S          0.00000   1.18001   0.00000  -0.00000
   4        4PX         0.00000   0.00000  -1.03213   0.00000
   5        4PY        -0.00241  -0.00000   0.00000  -1.03213
   6        4PZ         0.00000  -0.00028   0.00000   0.00000
   7        5PX         0.00000   0.00000  -0.46781   0.00000
   8        5PY        -0.00276  -0.00000   0.00000  -0.46781
   9        5PZ         0.00000  -0.00012   0.00000   0.00000
  10        6D 0       -0.00000  -1.06020   0.00000   0.00000
  11        6D+1        0.00000   0.00000   0.00032   0.00000
  12        6D-1        1.01503  -0.00000   0.00000   0.00032
  13        6D+2       -0.00134   0.00000   0.00000   1.37037
  14        6D-2        0.00000   0.00000   1.37037   0.00000
  15 2   H  1S          0.00111  -0.73163   0.00000   0.99882
  16        2S          0.00251  -0.35842   0.00000   0.31578
  17        3PX         0.00000   0.00000  -0.29762   0.00000
  18        3PY        -0.00259   0.87482   0.00000  -1.05713
  19        3PZ        -0.64418  -0.00021   0.00000   0.00019
  20 3   H  1S         -0.00055  -0.73163   0.86501  -0.49941
  21        2S         -0.00125  -0.35842   0.27347  -0.15789
  22        3PX         0.00224   0.75762  -0.86726   0.32888
  23        3PY         0.00130  -0.43741   0.32888  -0.48750
  24        3PZ         0.32209  -0.00021   0.00017  -0.00010
  25 4   H  1S         -0.00055  -0.73163  -0.86501  -0.49941
  26        2S         -0.00125  -0.35842  -0.27347  -0.15789
  27        3PX        -0.00224  -0.75762  -0.86726  -0.32888
  28        3PY         0.00130  -0.43741  -0.32888  -0.48750
  29        3PZ         0.32209  -0.00021  -0.00017  -0.00010
     Alpha Density Matrix:
                           1         2         3         4         5
   1 1   C  1S          1.04382
   2        2S         -0.08606   0.27220
   3        3S         -0.09025   0.11414   0.05075
   4        4PX         0.00000   0.00000   0.00000   0.20489
   5        4PY        -0.00000   0.00000  -0.00000   0.00000   0.20489
   6        4PZ        -0.00002   0.00005   0.00009   0.00000   0.00000
   7        5PX         0.00000   0.00000   0.00000   0.07962   0.00000
   8        5PY         0.00000  -0.00000  -0.00000   0.00000   0.07962
   9        5PZ        -0.00002   0.00005   0.00008   0.00000   0.00000
  10        6D 0       -0.00401   0.00275   0.00132   0.00000   0.00000
  11        6D+1        0.00000   0.00000   0.00000  -0.00000   0.00000
  12        6D-1       -0.00000  -0.00000  -0.00000   0.00000  -0.00000
  13        6D+2        0.00000   0.00000   0.00000   0.00000  -0.00716
  14        6D-2        0.00000   0.00000   0.00000  -0.00716   0.00000
  15 2   H  1S         -0.05268   0.09554   0.04126   0.00000   0.16530
  16        2S          0.00125   0.01244   0.00494   0.00000   0.06303
  17        3PX         0.00000   0.00000   0.00000   0.00572   0.00000
  18        3PY         0.00844  -0.01046  -0.00466   0.00000  -0.00450
  19        3PZ        -0.00000   0.00000   0.00000   0.00000   0.00000
  20 3   H  1S         -0.05268   0.09554   0.04126   0.14315  -0.08265
  21        2S          0.00125   0.01244   0.00494   0.05459  -0.03152
  22        3PX         0.00731  -0.00905  -0.00403  -0.00194   0.00442
  23        3PY        -0.00422   0.00523   0.00233   0.00442   0.00317
  24        3PZ        -0.00000   0.00000   0.00000   0.00000  -0.00000
  25 4   H  1S         -0.05268   0.09554   0.04126  -0.14315  -0.08265
  26        2S          0.00125   0.01244   0.00494  -0.05459  -0.03152
  27        3PX        -0.00731   0.00905   0.00403  -0.00194  -0.00442
  28        3PY        -0.00422   0.00523   0.00233  -0.00442   0.00317
  29        3PZ        -0.00000   0.00000   0.00000  -0.00000  -0.00000
                           6         7         8         9        10
   6        4PZ         0.37450
   7        5PX         0.00000   0.03094
   8        5PY        -0.00000   0.00000   0.03094
   9        5PZ         0.31341   0.00000  -0.00000   0.26228
  10        6D 0        0.00000   0.00000  -0.00000   0.00000   0.00004
  11        6D+1        0.00000  -0.00000   0.00000   0.00000   0.00000
  12        6D-1       -0.00000   0.00000  -0.00000  -0.00000   0.00000
  13        6D+2        0.00000   0.00000  -0.00278   0.00000  -0.00000
  14        6D-2        0.00000  -0.00278   0.00000   0.00000   0.00000
  15 2   H  1S         -0.00004   0.00000   0.06424  -0.00003   0.00104
  16        2S         -0.00002   0.00000   0.02450  -0.00002   0.00011
  17        3PX         0.00000   0.00222   0.00000   0.00000   0.00000
  18        3PY         0.00000   0.00000  -0.00175   0.00000  -0.00012
  19        3PZ         0.01136   0.00000   0.00000   0.00951   0.00000
  20 3   H  1S         -0.00004   0.05563  -0.03212  -0.00003   0.00104
  21        2S         -0.00002   0.02121  -0.01225  -0.00002   0.00011
  22        3PX         0.00000  -0.00075   0.00172   0.00000  -0.00011
  23        3PY        -0.00000   0.00172   0.00123  -0.00000   0.00006
  24        3PZ         0.01136   0.00000  -0.00000   0.00951   0.00000
  25 4   H  1S         -0.00004  -0.05563  -0.03212  -0.00003   0.00104
  26        2S         -0.00002  -0.02121  -0.01225  -0.00002   0.00011
  27        3PX        -0.00000  -0.00075  -0.00172  -0.00000   0.00011
  28        3PY        -0.00000  -0.00172   0.00123  -0.00000   0.00006
  29        3PZ         0.01136  -0.00000  -0.00000   0.00951   0.00000
                          11        12        13        14        15
  11        6D+1        0.00000
  12        6D-1        0.00000   0.00000
  13        6D+2        0.00000   0.00000   0.00025
  14        6D-2        0.00000   0.00000   0.00000   0.00025
  15 2   H  1S          0.00000  -0.00000  -0.00577   0.00000   0.16739
  16        2S          0.00000  -0.00000  -0.00220   0.00000   0.05511
  17        3PX        -0.00000   0.00000   0.00000  -0.00020   0.00000
  18        3PY         0.00000   0.00000   0.00016   0.00000  -0.00741
  19        3PZ         0.00000  -0.00000  -0.00000   0.00000   0.00000
  20 3   H  1S         -0.00000   0.00000   0.00289  -0.00500  -0.03265
  21        2S         -0.00000   0.00000   0.00110  -0.00191  -0.02118
  22        3PX         0.00000  -0.00000  -0.00015   0.00007   0.00029
  23        3PY        -0.00000  -0.00000  -0.00011  -0.00015   0.00445
  24        3PZ        -0.00000   0.00000   0.00000  -0.00000  -0.00000
  25 4   H  1S          0.00000   0.00000   0.00289   0.00500  -0.03265
  26        2S          0.00000   0.00000   0.00110   0.00191  -0.02118
  27        3PX         0.00000   0.00000   0.00015   0.00007  -0.00029
  28        3PY         0.00000  -0.00000  -0.00011   0.00015   0.00445
  29        3PZ         0.00000   0.00000   0.00000   0.00000  -0.00000
                          16        17        18        19        20
  16        2S          0.01999
  17        3PX         0.00000   0.00016
  18        3PY        -0.00184   0.00000   0.00053
  19        3PZ        -0.00000   0.00000  -0.00000   0.00034
  20 3   H  1S         -0.02118   0.00400  -0.00197  -0.00000   0.16739
  21        2S         -0.00910   0.00152   0.00024  -0.00000   0.05511
  22        3PX         0.00097  -0.00005   0.00027   0.00000  -0.00642
  23        3PY         0.00120   0.00012  -0.00028   0.00000   0.00371
  24        3PZ        -0.00000   0.00000   0.00000   0.00034   0.00000
  25 4   H  1S         -0.02118  -0.00400  -0.00197  -0.00000  -0.03265
  26        2S         -0.00910  -0.00152   0.00024  -0.00000  -0.02118
  27        3PX        -0.00097  -0.00005  -0.00027  -0.00000   0.00370
  28        3PY         0.00120  -0.00012  -0.00028   0.00000  -0.00248
  29        3PZ        -0.00000  -0.00000   0.00000   0.00034  -0.00000
                          21        22        23        24        25
  21        2S          0.01999
  22        3PX        -0.00159   0.00043
  23        3PY         0.00092  -0.00016   0.00025
  24        3PZ        -0.00000  -0.00000   0.00000   0.00034
  25 4   H  1S         -0.02118  -0.00370  -0.00248  -0.00000   0.16739
  26        2S         -0.00910  -0.00055  -0.00144  -0.00000   0.05511
  27        3PX         0.00055  -0.00040   0.00007  -0.00000   0.00642
  28        3PY        -0.00144  -0.00007   0.00006  -0.00000   0.00371
  29        3PZ        -0.00000   0.00000  -0.00000   0.00034   0.00000
                          26        27        28        29
  26        2S          0.01999
  27        3PX         0.00159   0.00043
  28        3PY         0.00092   0.00016   0.00025
  29        3PZ        -0.00000   0.00000   0.00000   0.00034
     Beta Density Matrix:
                           1         2         3         4         5
   1 1   C  1S          1.03943
   2        2S         -0.07523   0.24163
   3        3S         -0.07319   0.08329   0.03091
   4        4PX         0.00000   0.00000   0.00000   0.18889
   5        4PY        -0.00000   0.00000  -0.00000   0.00000   0.18889
   6        4PZ         0.00001  -0.00003  -0.00001   0.00000   0.00000
   7        5PX         0.00000   0.00000   0.00000   0.06599   0.00000
   8        5PY        -0.00000  -0.00000  -0.00000   0.00000   0.06599
   9        5PZ         0.00000  -0.00000  -0.00000   0.00000   0.00000
  10        6D 0        0.00117  -0.00904  -0.00304   0.00000   0.00000
  11        6D+1        0.00000   0.00000   0.00000  -0.00000   0.00000
  12        6D-1        0.00000  -0.00000  -0.00000   0.00000  -0.00000
  13        6D+2        0.00000   0.00000   0.00000   0.00000  -0.00656
  14        6D-2        0.00000   0.00000   0.00000  -0.00656   0.00000
  15 2   H  1S         -0.05550   0.09937   0.03539   0.00000   0.16654
  16        2S         -0.00402   0.02148   0.00728   0.00000   0.07041
  17        3PX         0.00000   0.00000   0.00000   0.00619   0.00000
  18        3PY         0.00810  -0.00984  -0.00363   0.00000  -0.00483
  19        3PZ        -0.00000   0.00000   0.00000   0.00000   0.00000
  20 3   H  1S         -0.05550   0.09937   0.03539   0.14423  -0.08327
  21        2S         -0.00402   0.02148   0.00728   0.06098  -0.03521
  22        3PX         0.00702  -0.00852  -0.00314  -0.00208   0.00478
  23        3PY        -0.00405   0.00492   0.00181   0.00478   0.00344
  24        3PZ        -0.00000   0.00000   0.00000   0.00000  -0.00000
  25 4   H  1S         -0.05550   0.09937   0.03539  -0.14423  -0.08327
  26        2S         -0.00402   0.02148   0.00728  -0.06098  -0.03521
  27        3PX        -0.00702   0.00852   0.00314  -0.00208  -0.00478
  28        3PY        -0.00405   0.00492   0.00181  -0.00478   0.00344
  29        3PZ        -0.00000   0.00000   0.00000  -0.00000  -0.00000
                           6         7         8         9        10
   6        4PZ         0.00000
   7        5PX         0.00000   0.02306
   8        5PY         0.00000   0.00000   0.02306
   9        5PZ         0.00000   0.00000   0.00000   0.00000
  10        6D 0        0.00000   0.00000   0.00000   0.00000   0.00034
  11        6D+1        0.00000  -0.00000   0.00000   0.00000   0.00000
  12        6D-1        0.00000   0.00000  -0.00000   0.00000   0.00000
  13        6D+2       -0.00000   0.00000  -0.00229  -0.00000  -0.00000
  14        6D-2        0.00000  -0.00229   0.00000   0.00000   0.00000
  15 2   H  1S         -0.00001   0.00000   0.05819  -0.00000  -0.00368
  16        2S         -0.00000   0.00000   0.02460  -0.00000  -0.00081
  17        3PX         0.00000   0.00216   0.00000   0.00000   0.00000
  18        3PY         0.00000   0.00000  -0.00169   0.00000   0.00036
  19        3PZ        -0.00000   0.00000   0.00000  -0.00000  -0.00000
  20 3   H  1S         -0.00001   0.05039  -0.02909  -0.00000  -0.00368
  21        2S         -0.00000   0.02130  -0.01230  -0.00000  -0.00081
  22        3PX         0.00000  -0.00073   0.00167   0.00000   0.00031
  23        3PY        -0.00000   0.00167   0.00120  -0.00000  -0.00018
  24        3PZ        -0.00000   0.00000  -0.00000  -0.00000  -0.00000
  25 4   H  1S         -0.00001  -0.05039  -0.02909  -0.00000  -0.00368
  26        2S         -0.00000  -0.02130  -0.01230  -0.00000  -0.00081
  27        3PX        -0.00000  -0.00073  -0.00167  -0.00000  -0.00031
  28        3PY        -0.00000  -0.00167   0.00120  -0.00000  -0.00018
  29        3PZ        -0.00000  -0.00000  -0.00000  -0.00000  -0.00000
                          11        12        13        14        15
  11        6D+1        0.00000
  12        6D-1        0.00000   0.00000
  13        6D+2        0.00000   0.00000   0.00023
  14        6D-2        0.00000   0.00000   0.00000   0.00023
  15 2   H  1S          0.00000  -0.00000  -0.00579   0.00000   0.18830
  16        2S          0.00000  -0.00000  -0.00245   0.00000   0.07085
  17        3PX        -0.00000   0.00000   0.00000  -0.00022   0.00000
  18        3PY         0.00000   0.00000   0.00017   0.00000  -0.00843
  19        3PZ         0.00000  -0.00000  -0.00000   0.00000   0.00000
  20 3   H  1S         -0.00000   0.00000   0.00289  -0.00501  -0.03197
  21        2S         -0.00000   0.00000   0.00122  -0.00212  -0.02227
  22        3PX         0.00000  -0.00000  -0.00017   0.00007   0.00060
  23        3PY        -0.00000  -0.00000  -0.00012  -0.00017   0.00512
  24        3PZ        -0.00000   0.00000   0.00000  -0.00000  -0.00000
  25 4   H  1S          0.00000   0.00000   0.00289   0.00501  -0.03197
  26        2S          0.00000   0.00000   0.00122   0.00212  -0.02227
  27        3PX         0.00000   0.00000   0.00017   0.00007  -0.00060
  28        3PY         0.00000  -0.00000  -0.00012   0.00017   0.00512
  29        3PZ         0.00000   0.00000   0.00000   0.00000  -0.00000
                          16        17        18        19        20
  16        2S          0.02817
  17        3PX         0.00000   0.00020
  18        3PY        -0.00266   0.00000   0.00055
  19        3PZ         0.00000   0.00000  -0.00000   0.00000
  20 3   H  1S         -0.02227   0.00473  -0.00204  -0.00000   0.18830
  21        2S         -0.01121   0.00200   0.00004  -0.00000   0.07085
  22        3PX         0.00103  -0.00007   0.00025   0.00000  -0.00730
  23        3PY         0.00171   0.00016  -0.00030   0.00000   0.00421
  24        3PZ        -0.00000   0.00000  -0.00000  -0.00000   0.00000
  25 4   H  1S         -0.02227  -0.00473  -0.00204  -0.00000  -0.03197
  26        2S         -0.01121  -0.00200   0.00004  -0.00000  -0.02227
  27        3PX        -0.00103  -0.00007  -0.00025  -0.00000   0.00413
  28        3PY         0.00171  -0.00016  -0.00030   0.00000  -0.00308
  29        3PZ        -0.00000  -0.00000  -0.00000  -0.00000  -0.00000
                          21        22        23        24        25
  21        2S          0.02817
  22        3PX        -0.00231   0.00046
  23        3PY         0.00133  -0.00015   0.00029
  24        3PZ         0.00000  -0.00000   0.00000   0.00000
  25 4   H  1S         -0.02227  -0.00413  -0.00308  -0.00000   0.18830
  26        2S         -0.01121  -0.00097  -0.00175  -0.00000   0.07085
  27        3PX         0.00097  -0.00042   0.00004   0.00000   0.00730
  28        3PY        -0.00175  -0.00004   0.00005  -0.00000   0.00421
  29        3PZ        -0.00000  -0.00000  -0.00000  -0.00000   0.00000
                          26        27        28        29
  26        2S          0.02817
  27        3PX         0.00231   0.00046
  28        3PY         0.00133   0.00015   0.00029
  29        3PZ         0.00000   0.00000   0.00000   0.00000
    Full Mulliken population analysis:
                           1         2         3         4         5
   1 1   C  1S          2.08325
   2        2S         -0.05251   0.51383
   3        3S         -0.02481   0.15764   0.08165
   4        4PX         0.00000   0.00000   0.00000   0.39377
   5        4PY         0.00000   0.00000   0.00000   0.00000   0.39377
   6        4PZ         0.00000   0.00000   0.00000   0.00000  -0.00000
   7        5PX         0.00000   0.00000   0.00000   0.07745   0.00000
   8        5PY         0.00000   0.00000   0.00000   0.00000   0.07745
   9        5PZ         0.00000   0.00000   0.00000   0.00000  -0.00000
  10        6D 0        0.00000   0.00000   0.00000   0.00000   0.00000
  11        6D+1        0.00000   0.00000   0.00000   0.00000   0.00000
  12        6D-1       -0.00000   0.00000   0.00000   0.00000   0.00000
  13        6D+2        0.00000   0.00000   0.00000   0.00000   0.00000
  14        6D-2        0.00000   0.00000   0.00000   0.00000   0.00000
  15 2   H  1S         -0.00532   0.07097   0.03466   0.00000   0.12893
  16        2S         -0.00024   0.01760   0.00930   0.00000   0.02785
  17        3PX         0.00000   0.00000   0.00000   0.00238   0.00000
  18        3PY        -0.00133   0.00729   0.00154   0.00000   0.00379
  19        3PZ        -0.00000   0.00000   0.00000   0.00000   0.00000
  20 3   H  1S         -0.00532   0.07097   0.03466   0.09670   0.03223
  21        2S         -0.00024   0.01760   0.00930   0.02089   0.00696
  22        3PX        -0.00099   0.00547   0.00116   0.00102   0.00242
  23        3PY        -0.00033   0.00182   0.00039   0.00242   0.00032
  24        3PZ        -0.00000   0.00000   0.00000   0.00000   0.00000
  25 4   H  1S         -0.00532   0.07097   0.03466   0.09670   0.03223
  26        2S         -0.00024   0.01760   0.00930   0.02089   0.00696
  27        3PX        -0.00099   0.00547   0.00116   0.00102   0.00242
  28        3PY        -0.00033   0.00182   0.00039   0.00242   0.00032
  29        3PZ        -0.00000   0.00000   0.00000   0.00000   0.00000
                           6         7         8         9        10
   6        4PZ         0.37450
   7        5PX         0.00000   0.05400
   8        5PY         0.00000   0.00000   0.05400
   9        5PZ         0.16670   0.00000   0.00000   0.26228
  10        6D 0        0.00000   0.00000   0.00000   0.00000   0.00038
  11        6D+1        0.00000   0.00000   0.00000   0.00000   0.00000
  12        6D-1        0.00000   0.00000   0.00000   0.00000  -0.00000
  13        6D+2        0.00000   0.00000   0.00000   0.00000   0.00000
  14        6D-2        0.00000   0.00000   0.00000   0.00000   0.00000
  15 2   H  1S          0.00000   0.00000   0.06916   0.00000   0.00040
  16        2S          0.00000   0.00000   0.02616   0.00000   0.00002
  17        3PX         0.00000   0.00116   0.00000   0.00000   0.00000
  18        3PY         0.00000   0.00000   0.00010   0.00000   0.00003
  19        3PZ         0.00227   0.00000   0.00000   0.00252  -0.00000
  20 3   H  1S          0.00000   0.05187   0.01729   0.00000   0.00040
  21        2S          0.00000   0.01962   0.00654   0.00000   0.00002
  22        3PX         0.00000  -0.00007   0.00043   0.00000   0.00002
  23        3PY         0.00000   0.00043   0.00047   0.00000   0.00001
  24        3PZ         0.00227   0.00000   0.00000   0.00252  -0.00000
  25 4   H  1S          0.00000   0.05187   0.01729   0.00000   0.00040
  26        2S          0.00000   0.01962   0.00654   0.00000   0.00002
  27        3PX         0.00000  -0.00007   0.00043   0.00000   0.00002
  28        3PY         0.00000   0.00043   0.00047   0.00000   0.00001
  29        3PZ         0.00227   0.00000   0.00000   0.00252  -0.00000
                          11        12        13        14        15
  11        6D+1        0.00000
  12        6D-1        0.00000   0.00000
  13        6D+2        0.00000   0.00000   0.00048
  14        6D-2       -0.00000   0.00000   0.00000   0.00048
  15 2   H  1S          0.00000   0.00000   0.00300   0.00000   0.35569
  16        2S          0.00000   0.00000   0.00020   0.00000   0.08626
  17        3PX         0.00000   0.00000   0.00000  -0.00014   0.00000
  18        3PY         0.00000   0.00000   0.00008   0.00000   0.00000
  19        3PZ         0.00000  -0.00000   0.00000   0.00000   0.00000
  20 3   H  1S          0.00000   0.00000   0.00075   0.00225  -0.00257
  21        2S          0.00000   0.00000   0.00005   0.00015  -0.00841
  22        3PX         0.00000   0.00000  -0.00001   0.00004  -0.00002
  23        3PY         0.00000   0.00000  -0.00007  -0.00001   0.00037
  24        3PZ        -0.00000  -0.00000   0.00000   0.00000   0.00000
  25 4   H  1S          0.00000   0.00000   0.00075   0.00225  -0.00257
  26        2S          0.00000   0.00000   0.00005   0.00015  -0.00841
  27        3PX         0.00000   0.00000  -0.00001   0.00004  -0.00002
  28        3PY         0.00000   0.00000  -0.00007  -0.00001   0.00037
  29        3PZ        -0.00000  -0.00000   0.00000   0.00000   0.00000
                          16        17        18        19        20
  16        2S          0.04815
  17        3PX         0.00000   0.00036
  18        3PY         0.00000   0.00000   0.00108
  19        3PZ         0.00000   0.00000   0.00000   0.00034
  20 3   H  1S         -0.00841   0.00019   0.00015  -0.00000   0.35569
  21        2S         -0.00923   0.00021  -0.00003  -0.00000   0.08626
  22        3PX        -0.00012   0.00000   0.00001  -0.00000   0.00000
  23        3PY         0.00030   0.00001   0.00002   0.00000   0.00000
  24        3PZ         0.00000  -0.00000  -0.00000   0.00000   0.00000
  25 4   H  1S         -0.00841   0.00019   0.00015  -0.00000  -0.00257
  26        2S         -0.00923   0.00021  -0.00003  -0.00000  -0.00841
  27        3PX        -0.00012   0.00000   0.00001  -0.00000   0.00035
  28        3PY         0.00030   0.00001   0.00002   0.00000  -0.00000
  29        3PZ         0.00000  -0.00000  -0.00000   0.00000  -0.00000
                          21        22        23        24        25
  21        2S          0.04815
  22        3PX         0.00000   0.00090
  23        3PY         0.00000   0.00000   0.00054
  24        3PZ         0.00000  -0.00000  -0.00000   0.00034
  25 4   H  1S         -0.00841   0.00035  -0.00000   0.00000   0.35569
  26        2S         -0.00923   0.00018  -0.00000   0.00000   0.08626
  27        3PX         0.00018   0.00004   0.00000  -0.00000   0.00000
  28        3PY        -0.00000  -0.00000   0.00000   0.00000   0.00000
  29        3PZ        -0.00000   0.00000   0.00000   0.00000   0.00000
                          26        27        28        29
  26        2S          0.04815
  27        3PX         0.00000   0.00090
  28        3PY         0.00000  -0.00000   0.00054
  29        3PZ         0.00000   0.00000  -0.00000   0.00034
     Gross orbital populations:
                         Total     Alpha     Beta      Spin
   1 1   C  1S          1.98528   0.99263   0.99265  -0.00003
   2        2S          0.90654   0.47031   0.43623   0.03408
   3        3S          0.35101   0.19804   0.15296   0.04508
   4        4PX         0.71566   0.36776   0.34789   0.01987
   5        4PY         0.71566   0.36776   0.34789   0.01987
   6        4PZ         0.54802   0.54802   0.00000   0.54802
   7        5PX         0.27632   0.14827   0.12806   0.02021
   8        5PY         0.27632   0.14827   0.12806   0.02021
   9        5PZ         0.43655   0.43655   0.00000   0.43655
  10        6D 0        0.00172  -0.00049   0.00220  -0.00269
  11        6D+1        0.00000   0.00000   0.00000  -0.00000
  12        6D-1        0.00000   0.00000   0.00000  -0.00000
  13        6D+2        0.00519   0.00260   0.00259   0.00001
  14        6D-2        0.00519   0.00260   0.00259   0.00001
  15 2   H  1S          0.72249   0.34737   0.37511  -0.02774
  16        2S          0.18038   0.07801   0.10238  -0.02437
  17        3PX         0.00460   0.00220   0.00240  -0.00021
  18        3PY         0.01290   0.00651   0.00640   0.00011
  19        3PZ         0.00514   0.00514   0.00000   0.00514
  20 3   H  1S          0.72249   0.34737   0.37511  -0.02774
  21        2S          0.18038   0.07801   0.10238  -0.02437
  22        3PX         0.01083   0.00543   0.00540   0.00003
  23        3PY         0.00668   0.00327   0.00340  -0.00013
  24        3PZ         0.00514   0.00514   0.00000   0.00514
  25 4   H  1S          0.72249   0.34737   0.37511  -0.02774
  26        2S          0.18038   0.07801   0.10238  -0.02437
  27        3PX         0.01083   0.00543   0.00540   0.00003
  28        3PY         0.00668   0.00327   0.00340  -0.00013
  29        3PZ         0.00514   0.00514   0.00000   0.00514
          Condensed to atoms (all electrons):
               1          2          3          4
     1  C    5.016236   0.402404   0.402404   0.402404
     2  H    0.402404   0.578143  -0.027515  -0.027515
     3  H    0.402404  -0.027515   0.578143  -0.027515
     4  H    0.402404  -0.027515  -0.027515   0.578143
          Atomic-Atomic Spin Densities.
               1          2          3          4
     1  C    1.138531   0.000882   0.000882   0.000882
     2  H    0.000882  -0.050378   0.001219   0.001219
     3  H    0.000882   0.001219  -0.050378   0.001219
     4  H    0.000882   0.001219   0.001219  -0.050378
 Mulliken charges and spin densities:
               1          2
     1  C   -0.223448   1.141176
     2  H    0.074483  -0.047059
     3  H    0.074483  -0.047059
     4  H    0.074483  -0.047059
 Sum of Mulliken charges =   0.00000   1.00000
 Mulliken charges and spin densities with hydrogens summed into heavy atoms:
               1          2
     1  C    0.000000   1.000000
 Electronic spatial extent (au):  <R**2>=             30.0342
 Charge=              0.0000 electrons
 Dipole moment (field-independent basis, Debye):
    X=              0.0000    Y=             -0.0000    Z=             -0.0004  Tot=              0.0004
 Quadrupole moment (field-independent basis, Debye-Ang):
   XX=             -7.1308   YY=             -7.1308   ZZ=             -8.7354
   XY=             -0.0000   XZ=             -0.0000   YZ=              0.0000
 Traceless Quadrupole moment (field-independent basis, Debye-Ang):
   XX=              0.5349   YY=              0.5349   ZZ=             -1.0697
   XY=             -0.0000   XZ=             -0.0000   YZ=              0.0000
 Octapole moment (field-independent basis, Debye-Ang**2):
  XXX=             -0.0000  YYY=              0.8126  ZZZ=             -0.0006  XYY=             -0.0000
  XXY=             -0.8126  XXZ=             -0.0004  XZZ=             -0.0000  YZZ=              0.0000
  YYZ=             -0.0004  XYZ=              0.0000
 Hexadecapole moment (field-independent basis, Debye-Ang**3):
 XXXX=            -14.5805 YYYY=            -14.5805 ZZZZ=             -9.4685 XXXY=             -0.0000
 XXXZ=              0.0000 YYYX=             -0.0000 YYYZ=             -0.0002 ZZZX=              0.0000
 ZZZY=              0.0000 XXYY=             -4.8602 XXZZ=             -4.3712 YYZZ=             -4.3712
 XXYZ=              0.0002 YYXZ=              0.0000 ZZXY=             -0.0000
 N-N= 9.502189138084D+00 E-N=-1.104909435253D+02  KE= 3.920721275350D+01
 Symmetry A'   KE= 3.729756981875D+01
 Symmetry A"   KE= 1.909642934755D+00

 Atomic contributions to Alpha molecular orbitals:
 Alpha occ 1 OE=-9.930 is C1-s=1.00
 Alpha occ 2 OE=-0.607 is C1-s=0.66 H2-s=0.11 H4-s=0.11 H3-s=0.11
 Alpha occ 3 OE=-0.371 is C1-p=0.52 H4-s=0.24 H3-s=0.24
 Alpha occ 4 OE=-0.371 is C1-p=0.52 H2-s=0.32
 Alpha occ 5 OE=-0.194 is C1-p=0.98
 Alpha vir 6 OE=0.057 is H3-s=0.43 H4-s=0.43 H2-s=0.43 C1-s=-0.29
 Alpha vir 7 OE=0.120 is H2-s=0.65 H4-s=0.16 H3-s=0.16
 Alpha vir 8 OE=0.120 is H3-s=0.49 H4-s=0.49
 Alpha vir 9 OE=0.407 is C1-p=0.70 H2-s=0.14
 Alpha vir 10 OE=0.407 is C1-p=0.70 H4-s=0.10 H3-s=0.10
 Alpha vir 11 OE=0.424 is C1-s=0.76
 Alpha vir 12 OE=0.434 is C1-p=1.00
 Alpha vir 13 OE=0.585 is C1-s=0.77
 Alpha vir 14 OE=0.631 is C1-p=0.65 H2-s=0.17
 Alpha vir 15 OE=0.631 is C1-p=0.65 H4-s=0.13 H3-s=0.13
 Alpha vir 16 OE=1.130 is H2-p=0.45 C1-d=0.33 H3-p=0.11 H4-p=0.11
 Alpha vir 17 OE=1.130 is H3-p=0.33 H4-p=0.33 C1-d=0.33
 Alpha vir 18 OE=1.402 is H3-p=0.33 H4-p=0.33 H2-p=0.33
 Alpha vir 19 OE=1.526 is H4-p=0.30 H3-p=0.30 C1-d=0.19 H2-p=0.13
 Alpha vir 20 OE=1.526 is H2-p=0.36 C1-d=0.19 H3-p=0.19 H4-p=0.19
 Alpha vir 21 OE=1.651 is H3-p=0.33 H4-p=0.33 H2-p=0.33
[...]
                           0.026%  H  4 s( 89.45%)p 0.12( 10.55%)
   4. (1.00000)  99.9287% BD ( 1) C  1- H  3
                          60.053%  C  1 s( 35.07%)p 1.85( 64.89%)d 0.00(  0.04%)
                           0.025%  H  2 s( 90.96%)p 0.10(  9.04%)
                          39.896%  H  3 s( 99.91%)p 0.00(  0.09%)
                           0.026%  H  4 s( 90.23%)p 0.11(  9.77%)
   5. (1.00000)  99.9287% BD ( 1) C  1- H  4
                          60.053%  C  1 s( 35.07%)p 1.85( 64.89%)d 0.00(  0.04%)
                           0.025%  H  2 s( 90.96%)p 0.10(  9.04%)
                           0.026%  H  3 s( 90.23%)p 0.11(  9.77%)
                          39.896%  H  4 s( 99.91%)p 0.00(  0.09%)

 Individual LMO bond orders greater than 0.002 in magnitude,
 with the overlap between the hybrids in the NLMO given:

 Atom I / Atom J / NLMO / Bond Order / Hybrid Overlap /
    1       2       3     0.3989813       0.7833855
    1       3       4     0.3989568       0.7829948
    1       4       5     0.3989568       0.7829948


 Atom-Atom Net Linear NLMO/NPA Bond Orders:

     Atom    1       2       3       4
     ---- ------  ------  ------  ------
   1.  C  0.0000  0.3987  0.3987  0.3987
   2.  H  0.3987  0.0000  0.0000  0.0000
   3.  H  0.3987  0.0000  0.0000  0.0000
   4.  H  0.3987  0.0000  0.0000  0.0000


 Linear NLMO/NPA Bond Orders, Totals by Atom:

     Atom    1
     ---- ------
   1.  C  1.1961
   2.  H  0.3987
   3.  H  0.3987
   4.  H  0.3987


 ***************************************************
 *******         Beta  spin orbitals         *******
 ***************************************************


 NATURAL POPULATIONS:  Natural atomic orbital occupancies

  NAO Atom No lang   Type(AO)    Occupancy      Energy
 -------------------------------------------------------
   1    C  1  s      Cor( 1s)     0.99997      -9.91553
   2    C  1  s      Val( 2s)     0.58991      -0.19166
   3    C  1  s      Ryd( 3s)     0.00002       0.53144
   4    C  1  px     Val( 2p)     0.56200      -0.02142
   5    C  1  px     Ryd( 3p)     0.00067       0.52372
   6    C  1  py     Val( 2p)     0.56199      -0.02133
   7    C  1  py     Ryd( 3p)     0.00067       0.52374
   8    C  1  pz     Val( 2p)     0.00000      -0.07969
   9    C  1  pz     Ryd( 3p)     0.00000       0.50582
  10    C  1  dxy    Ryd( 3d)     0.00029       2.35116
  11    C  1  dxz    Ryd( 3d)     0.00000       1.84615
  12    C  1  dyz    Ryd( 3d)     0.00000       1.85365
  13    C  1  dx2y2  Ryd( 3d)     0.00028       2.35831
  14    C  1  dz2    Ryd( 3d)     0.00071       2.15374

  15    H  2  s      Val( 1s)     0.42711       0.04442
  16    H  2  s      Ryd( 2s)     0.00016       0.30914
  17    H  2  px     Ryd( 2p)     0.00005       1.65547
  18    H  2  py     Ryd( 2p)     0.00053       2.26838
  19    H  2  pz     Ryd( 2p)     0.00000       1.53388

  20    H  3  s      Val( 1s)     0.42712       0.04449
  21    H  3  s      Ryd( 2s)     0.00016       0.30926
  22    H  3  px     Ryd( 2p)     0.00038       2.12982
  23    H  3  py     Ryd( 2p)     0.00016       1.82487
  24    H  3  pz     Ryd( 2p)     0.00000       1.54185

  25    H  4  s      Val( 1s)     0.42712       0.04449
  26    H  4  s      Ryd( 2s)     0.00016       0.30926
  27    H  4  px     Ryd( 2p)     0.00038       2.12982
  28    H  4  py     Ryd( 2p)     0.00016       1.82487
  29    H  4  pz     Ryd( 2p)     0.00000       1.54185


 Summary of Natural Population Analysis:

                                     Natural Population
             Natural    ---------------------------------------------
  Atom No    Charge        Core      Valence    Rydberg      Total
 --------------------------------------------------------------------
    C  1    0.28351      0.99997     1.71389    0.00263     2.71649
    H  2    0.07214      0.00000     0.42711    0.00074     0.42786
    H  3    0.07217      0.00000     0.42712    0.00070     0.42783
    H  4    0.07217      0.00000     0.42712    0.00070     0.42783
 ====================================================================
 * Total *  0.50000      0.99997     2.99525    0.00477     4.00000

                                 Natural Population
 ---------------------------------------------------------
   Core                       0.99997 ( 99.9973% of    1)
   Valence                    2.99525 ( 99.8417% of    3)
   Natural Minimal Basis      3.99523 ( 99.8806% of    4)
   Natural Rydberg Basis      0.00477 (  0.1194% of    4)
 ---------------------------------------------------------

    Atom No         Natural Electron Configuration
 ----------------------------------------------------------------------------
      C  1      [core]2s( 0.59)2p( 1.12)
      H  2            1s( 0.43)
      H  3            1s( 0.43)
      H  4            1s( 0.43)


 Wiberg bond index matrix in the NAO basis:

     Atom    1       2       3       4
     ---- ------  ------  ------  ------
   1.  C  0.0000  0.4893  0.4893  0.4893
   2.  H  0.4893  0.0000  0.0004  0.0004
   3.  H  0.4893  0.0004  0.0000  0.0004
   4.  H  0.4893  0.0004  0.0004  0.0000


 Wiberg bond index, Totals by atom:

     Atom    1
     ---- ------
   1.  C  1.4678
   2.  H  0.4900
   3.  H  0.4900
   4.  H  0.4900


 NBI: Natural Binding Index (NCU strength parameters)

     Atom    1       2       3       4
     ---- ------  ------  ------  ------
   1.  C  0.0000  0.4946  0.4946  0.4946
   2.  H  0.4946  0.0000  0.0138  0.0138
   3.  H  0.4946  0.0138  0.0000  0.0138
   4.  H  0.4946  0.0138  0.0138  0.0000


 NATURAL BOND ORBITAL ANALYSIS, beta spin orbitals:

                            Occupancies       Lewis Structure    Low   High
         Max    Occ     -------------------  -----------------   occ   occ
  Cycle  Ctr   Thresh    Lewis   non-Lewis     CR  BD  nC  LP    (L)   (NL)
 ============================================================================
    1     2     0.95     3.99871   0.00129      1   3   0   0     0      0
 ----------------------------------------------------------------------------

 Structure accepted: No low occupancy Lewis orbitals

 -------------------------------------------------------
   Core                      0.99997 ( 99.997% of   1)
   Valence Lewis             2.99874 ( 99.958% of   3)
  ==================      =============================
   Total Lewis               3.99871 ( 99.968% of   4)
  -----------------------------------------------------
   Valence non-Lewis         0.00053 (  0.013% of   4)
   Rydberg non-Lewis         0.00076 (  0.019% of   4)
  ==================      =============================
   Total non-Lewis           0.00129 (  0.032% of   4)
 -------------------------------------------------------


     (Occupancy)   Bond orbital / Coefficients / Hybrids
 ------------------ Lewis ------------------------------------------------------
   1. (0.99997) CR ( 1) C  1            s(100.00%)
                                         1.0000  0.0000  0.0000  0.0000  0.0000
                                         0.0000  0.0000  0.0000  0.0000  0.0000
                                         0.0000  0.0000  0.0000  0.0000
   2. (0.99958) BD ( 1) C  1- H  2
               ( 57.23%)   0.7565* C  1 s( 33.30%)p 2.00( 66.63%)d 0.00(  0.07%)
                                         0.0000  0.5770  0.0033  0.0000  0.0000
                                         0.8158  0.0280 -0.0001  0.0000  0.0000
                                         0.0000  0.0000 -0.0178 -0.0198
               ( 42.77%)   0.6540* H  2 s( 99.88%)p 0.00(  0.12%)
                                         0.9994  0.0041  0.0000 -0.0340  0.0000
   3. (0.99958) BD ( 1) C  1- H  3
               ( 57.23%)   0.7565* C  1 s( 33.29%)p 2.00( 66.63%)d 0.00(  0.07%)
                                         0.0000  0.5770  0.0033  0.7065  0.0243
                                        -0.4079 -0.0141 -0.0001  0.0000 -0.0160
                                         0.0000  0.0000  0.0094 -0.0200
               ( 42.77%)   0.6540* H  3 s( 99.89%)p 0.00(  0.11%)
                                         0.9995  0.0041 -0.0281  0.0161  0.0000
   4. (0.99958) BD ( 1) C  1- H  4
               ( 57.23%)   0.7565* C  1 s( 33.29%)p 2.00( 66.63%)d 0.00(  0.07%)
                                         0.0000  0.5770  0.0033 -0.7065 -0.0243
                                        -0.4079 -0.0141 -0.0001  0.0000  0.0160
                                         0.0000  0.0000  0.0094 -0.0200
               ( 42.77%)   0.6540* H  4 s( 99.89%)p 0.00(  0.11%)
                                         0.9995  0.0041  0.0281  0.0161  0.0000
 ---------------- non-Lewis ----------------------------------------------------
   5. (0.00000) LV ( 1) C  1            s(  0.00%)p 1.00(100.00%)d 0.00(  0.00%)
   6. (0.00018) BD*( 1) C  1- H  2
               ( 42.77%)   0.6540* C  1 s( 33.30%)p 2.00( 66.63%)d 0.00(  0.07%)
                                         0.0000 -0.5770 -0.0033  0.0000  0.0000
                                        -0.8158 -0.0280  0.0001  0.0000  0.0000
                                         0.0000  0.0000  0.0178  0.0198
               ( 57.23%)  -0.7565* H  2 s( 99.88%)p 0.00(  0.12%)
                                        -0.9994 -0.0041  0.0000  0.0340  0.0000
   7. (0.00018) BD*( 1) C  1- H  3
               ( 42.77%)   0.6540* C  1 s( 33.29%)p 2.00( 66.63%)d 0.00(  0.07%)
                                         0.0000 -0.5770 -0.0033 -0.7065 -0.0243
                                         0.4079  0.0141  0.0001  0.0000  0.0160
                                         0.0000  0.0000 -0.0094  0.0200
               ( 57.23%)  -0.7565* H  3 s( 99.89%)p 0.00(  0.11%)
                                        -0.9995 -0.0041  0.0281 -0.0161  0.0000
   8. (0.00018) BD*( 1) C  1- H  4
               ( 42.77%)   0.6540* C  1 s( 33.29%)p 2.00( 66.63%)d 0.00(  0.07%)
                                         0.0000 -0.5770 -0.0033  0.7065  0.0243
                                         0.4079  0.0141  0.0001  0.0000 -0.0160
                                         0.0000  0.0000 -0.0094  0.0200
               ( 57.23%)  -0.7565* H  4 s( 99.89%)p 0.00(  0.11%)
                                        -0.9995 -0.0041 -0.0281 -0.0161  0.0000
   9. (0.00000) RY ( 1) C  1            s(  0.80%)p 0.00(  0.00%)d99.99( 99.20%)
  10. (0.00000) RY ( 2) C  1            s( 99.32%)p 0.00(  0.00%)d 0.01(  0.68%)
  11. (0.00000) RY ( 3) C  1            s(  0.00%)p 1.00(100.00%)
  12. (0.00000) RY ( 4) C  1            s(  0.00%)p 1.00(100.00%)d 0.00(  0.00%)
  13. (0.00000) RY ( 5) C  1            s(  0.00%)p 1.00(100.00%)d 0.00(  0.00%)
  14. (0.00000) RY ( 6) C  1            s(  0.00%)p 1.00(  0.05%)d99.99( 99.95%)
  15. (0.00000) RY ( 7) C  1            s(  0.00%)p 0.00(  0.00%)d 1.00(100.00%)
  16. (0.00000) RY ( 8) C  1            s(  0.00%)p 0.00(  0.00%)d 1.00(100.00%)
  17. (0.00000) RY ( 9) C  1            s(  0.00%)p 1.00(  0.05%)d99.99( 99.95%)
  18. (0.00020) RY ( 1) H  2            s( 78.12%)p 0.28( 21.88%)
                                         0.0123  0.8838  0.0000  0.4678 -0.0001
  19. (0.00005) RY ( 2) H  2            s(  0.00%)p 1.00(100.00%)
  20. (0.00000) RY ( 3) H  2            s( 22.00%)p 3.55( 78.00%)
  21. (0.00000) RY ( 4) H  2            s(  0.00%)p 1.00(100.00%)
  22. (0.00020) RY ( 1) H  3            s( 77.42%)p 0.29( 22.58%)
                                         0.0118  0.8798  0.4065 -0.2460 -0.0001
  23. (0.00005) RY ( 2) H  3            s(  0.02%)p99.99( 99.98%)
  24. (0.00000) RY ( 3) H  3            s( 22.66%)p 3.41( 77.34%)
  25. (0.00000) RY ( 4) H  3            s(  0.00%)p 1.00(100.00%)
  26. (0.00020) RY ( 1) H  4            s( 77.42%)p 0.29( 22.58%)
                                         0.0118  0.8798 -0.4065 -0.2460 -0.0001
  27. (0.00005) RY ( 2) H  4            s(  0.02%)p99.99( 99.98%)
  28. (0.00000) RY ( 3) H  4            s( 22.66%)p 3.41( 77.34%)
  29. (0.00000) RY ( 4) H  4            s(  0.00%)p 1.00(100.00%)


 NHO DIRECTIONALITY AND BOND BENDING (deviation from line of nuclear centers at
                                      the position of maximum hybrid amplitude)

         [Thresholds for printing:  angular deviation  >  1.0 degree]
                                    p- or d-character  > 25.0%
                                    orbital occupancy  >  0.10e

                        Line of Centers        Hybrid 1             Hybrid 2
                        ---------------  -------------------  ------------------
           NBO            Theta   Phi    Theta   Phi    Dev   Theta   Phi    Dev
 ===============================================================================
    None exceeding thresholds


 SECOND ORDER PERTURBATION THEORY ANALYSIS OF FOCK MATRIX IN NBO BASIS

     Threshold for printing:   0.25 kcal/mol
                                                          E(2) E(NL)-E(L) F(L,NL)
      Donor (L) NBO              Acceptor (NL) NBO      kcal/mol   a.u.    a.u.
 ===============================================================================

 within unit  1
       None above threshold


 NATURAL BOND ORBITALS (Summary):

                                                     Principal Delocalizations
           NBO                 Occupancy    Energy   (geminal,vicinal,remote)
 ===============================================================================
 Molecular unit  1  (CH3)
 ------ Lewis --------------------------------------
    1. CR ( 1) C  1             0.99997    -9.91553
    2. BD ( 1) C  1- H  2       0.99958    -0.43157
    3. BD ( 1) C  1- H  3       0.99958    -0.43158
    4. BD ( 1) C  1- H  4       0.99958    -0.43158
 ------ non-Lewis ----------------------------------
    5. LV ( 1) C  1             0.00000    -0.07969
    6. BD*( 1) C  1- H  2       0.00018     0.41184
    7. BD*( 1) C  1- H  3       0.00018     0.41157
    8. BD*( 1) C  1- H  4       0.00018     0.41157
    9. RY ( 1) C  1             0.00000     2.15462
   10. RY ( 2) C  1             0.00000     0.52706
   11. RY ( 3) C  1             0.00000     0.51994
   12. RY ( 4) C  1             0.00000     0.51995
   13. RY ( 5) C  1             0.00000     0.50582
   14. RY ( 6) C  1             0.00000     2.34635
   15. RY ( 7) C  1             0.00000     1.84615
   16. RY ( 8) C  1             0.00000     1.85365
   17. RY ( 9) C  1             0.00000     2.35291
   18. RY ( 1) H  2             0.00020     0.77796
   19. RY ( 2) H  2             0.00005     1.65547
   20. RY ( 3) H  2             0.00000     1.79279
   21. RY ( 4) H  2             0.00000     1.53388
   22. RY ( 1) H  3             0.00020     0.80516
   23. RY ( 2) H  3             0.00005     1.65963
   24. RY ( 3) H  3             0.00000     1.79256
   25. RY ( 4) H  3             0.00000     1.54185
   26. RY ( 1) H  4             0.00020     0.80516
   27. RY ( 2) H  4             0.00005     1.65963
   28. RY ( 3) H  4             0.00000     1.79256
   29. RY ( 4) H  4             0.00000     1.54185
          -------------------------------
                 Total Lewis    3.99871  ( 99.9678%)
           Valence non-Lewis    0.00053  (  0.0132%)
           Rydberg non-Lewis    0.00076  (  0.0190%)
          -------------------------------
               Total unit  1    4.00000  (100.0000%)
              Charge unit  1    0.50000

 $CHOOSE
  ALPHA
   LONE 1 1 END
   BOND S 1 2 S 1 3 S 1 4 END
  END
  BETA
   BOND S 1 2 S 1 3 S 1 4 END
  END
 $END


 NATURAL LOCALIZED MOLECULAR ORBITAL (NLMO) ANALYSIS:

 1 pass over DM reduced the maximum off-diagonal element to 0.34E-10

 Hybridization/Polarization Analysis of NLMOs in NAO Basis, Beta Spin:
 NLMO / Occupancy / Percent from Parent NBO / Atomic Hybrid Contributions
 -------------------------------------------------------------------------------
   1. (1.00000)  99.9973% CR ( 1) C  1
                          99.998%  C  1 s(100.00%)p 0.00(  0.00%)d 0.00(  0.00%)
   2. (1.00000)  99.9576% BD ( 1) C  1- H  2
                          57.214%  C  1 s( 34.38%)p 1.91( 65.55%)d 0.00(  0.07%)
                          42.751%  H  2 s( 99.89%)p 0.00(  0.11%)
                           0.017%  H  3 s( 72.85%)p 0.37( 27.15%)
                           0.017%  H  4 s( 72.85%)p 0.37( 27.15%)
   3. (1.00000)  99.9582% BD ( 1) C  1- H  3
                          57.218%  C  1 s( 34.36%)p 1.91( 65.56%)d 0.00(  0.08%)
                           0.017%  H  2 s( 74.67%)p 0.34( 25.33%)
                          42.747%  H  3 s( 99.90%)p 0.00(  0.10%)
                           0.017%  H  4 s( 73.86%)p 0.35( 26.14%)
   4. (1.00000)  99.9582% BD ( 1) C  1- H  4
                          57.218%  C  1 s( 34.36%)p 1.91( 65.56%)d 0.00(  0.08%)
                           0.017%  H  2 s( 74.67%)p 0.34( 25.33%)
                           0.017%  H  3 s( 73.86%)p 0.35( 26.14%)
                          42.747%  H  4 s( 99.90%)p 0.00(  0.10%)

 Individual LMO bond orders greater than 0.002 in magnitude,
 with the overlap between the hybrids in the NLMO given:

 Atom I / Atom J / NLMO / Bond Order / Hybrid Overlap /
    1       2       2     0.4275063       0.7841677
    1       3       3     0.4274717       0.7837172
    1       4       4     0.4274717       0.7837172


 Atom-Atom Net Linear NLMO/NPA Bond Orders:

     Atom    1       2       3       4
     ---- ------  ------  ------  ------
   1.  C  0.0000  0.4272  0.4271  0.4271
   2.  H  0.4272  0.0000 -0.0002 -0.0002
   3.  H  0.4271 -0.0002  0.0000 -0.0002
   4.  H  0.4271 -0.0002 -0.0002  0.0000


 Linear NLMO/NPA Bond Orders, Totals by Atom:

     Atom    1
     ---- ------
   1.  C  1.2814
   2.  H  0.4268
   3.  H  0.4268
   4.  H  0.4268

 NBO analysis completed in 0.16 CPU seconds (1 wall second)
 Maximum scratch memory used by NBO was 149203 words
 Maximum scratch memory used by G09NBO was 14252 words

 Read Unf file /scr/martin/g09job.inter1515759020/Gau-21708.EUF:
 Label Gaussian matrix elements                                         IVers= 1 NLab= 2 Version=ES64L-G09RevE.01
 Title Methane DF-BP86/def2-SVP                                        
 NAtoms=     4 NBasis=    29 NBsUse=    29 ICharg=     0 Multip=     2 NE=     9 Len12L=8 Len4L=8
 Label GAUSSIAN SCALARS                                                 NI= 1 NR= 1 NTot=       1 LenBuf=    2000 N=    1000       1       1       1       1
 Label NPA CHARGES                                                      NI= 0 NR= 1 NTot=       4 LenBuf=    4000 N=       4       0       0       0       0
 Recovered energy= 0.000000000000E+00 dipole=      0.000000000000      0.000000000000      0.000000000000
 Leave Link  612 at Fri Jan 12 21:10:23 2018, MaxMem=    33554432 cpu:         0.2
 (Enter /home/chemsoft/gaussian/g09e01/g09/l604.exe)
 Evaluate density.
 Using the total density.
 Monte-Carlo method of calculating molar volume:
 based on  0.001 e/bohr**3 density envelope.
 Number of points per bohr**3 =   20 CutOff= 1.00D-04
 Using the SCF density.
 There are       260 points.  Will hold       260 in memory.
 LenV=    33543852 MDV=    33554432.
 Box volume = 2209.956 fraction occupied=0.096
 Integrated density= 3.9095634470802070D+00 error=-5.0904365529197930D+00
 Molar volume =  212.496 bohr**3/mol ( 18.963 cm**3/mol)
 Recommended a0 for SCRF calculation =  2.66 angstrom (  5.02 bohr)
 Leave Link  604 at Fri Jan 12 21:10:23 2018, MaxMem=    33554432 cpu:         0.1
 (Enter /home/chemsoft/gaussian/g09e01/g09/l9999.exe)

 This type of calculation cannot be archived.

 Writing a WFN file to "methyl.df-bp86svp.wfn"


 ARTHROPOD AXIOM: A COMPUTER SYSTEM IS LIKE A SPIDER'S WEB.
 YOU CANNOT PULL ON ONE END WITHOUT MAKING THE OTHER END MOVE.
     -- GREG WETTSTEIN
 Job cpu time:       0 days  0 hours  0 minutes  1.8 seconds.
 File lengths (MBytes):  RWF=      5 Int=      0 D2E=      0 Chk=      1 Scr=      1
 Normal termination of Gaussian 09 at Fri Jan 12 21:10:23 2018.
