 Entering Gaussian System, Link 0=g09
 Input=methyl.df-bp86svp.gjf
 Output=methyl.df-bp86svp.log
 Initial command:
 /home/chemsoft/gaussian/g09e01/g09/l1.exe "/scr/martin/g09job.inter1515758770/Gau-21373.inp" -scrdir="/scr/martin/g09job.inter1515758770/"
 Entering Link 1 = /home/chemsoft/gaussian/g09e01/g09/l1.exe PID=     21374.
  
 Copyright (c) 1988,1990,1992,1993,1995,1998,2003,2009,2015,
            Gaussian, Inc.  All Rights Reserved.
  
 This is part of the Gaussian(R) 09 program.  It is based on
 the Gaussian(R) 03 system (copyright 2003, Gaussian, Inc.),
 the Gaussian(R) 98 system (copyright 1998, Gaussian, Inc.),
 the Gaussian(R) 94 system (copyright 1995, Gaussian, Inc.),
 the Gaussian 92(TM) system (copyright 1992, Gaussian, Inc.),
 the Gaussian 90(TM) system (copyright 1990, Gaussian, Inc.),
 the Gaussian 88(TM) system (copyright 1988, Gaussian, Inc.),
 the Gaussian 86(TM) system (copyright 1986, Carnegie Mellon
 University), and the Gaussian 82(TM) system (copyright 1983,
 Carnegie Mellon University). Gaussian is a federally registered
 trademark of Gaussian, Inc.
  
 This software contains proprietary and confidential information,
 including trade secrets, belonging to Gaussian, Inc.
  
 This software is provided under written license and may be
 used, copied, transmitted, or stored only in accord with that
 written license.
  
 The following legend is applicable only to US Government
 contracts under FAR:
  
                    RESTRICTED RIGHTS LEGEND
  
 Use, reproduction and disclosure by the US Government is
 subject to restrictions as set forth in subparagraphs (a)
 and (c) of the Commercial Computer Software - Restricted
 Rights clause in FAR 52.227-19.
  
 Gaussian, Inc.
 340 Quinnipiac St., Bldg. 40, Wallingford CT 06492
  
  
 ---------------------------------------------------------------
 Warning -- This program may not be used in any manner that
 competes with the business of Gaussian, Inc. or will provide
 assistance to any competitor of Gaussian, Inc.  The licensee
 of this program is prohibited from giving any competitor of
 Gaussian, Inc. access to this program.  By using this program,
 the user acknowledges that Gaussian, Inc. is engaged in the
 business of creating and licensing software in the field of
 computational chemistry and represents and warrants to the
 licensee that it is not a competitor of Gaussian, Inc. and that
 it will not use this program in any manner prohibited above.
 ---------------------------------------------------------------
  

 Cite this work as:
 Gaussian 09, Revision E.01,
 M. J. Frisch, G. W. Trucks, H. B. Schlegel, G. E. Scuseria, 
 M. A. Robb, J. R. Cheeseman, G. Scalmani, V. Barone, B. Mennucci, 
 G. A. Petersson, H. Nakatsuji, M. Caricato, X. Li, H. P. Hratchian, 
 A. F. Izmaylov, J. Bloino, G. Zheng, J. L. Sonnenberg, M. Hada, 
 M. Ehara, K. Toyota, R. Fukuda, J. Hasegawa, M. Ishida, T. Nakajima, 
 Y. Honda, O. Kitao, H. Nakai, T. Vreven, J. A. Montgomery, Jr., 
 J. E. Peralta, F. Ogliaro, M. Bearpark, J. J. Heyd, E. Brothers, 
 K. N. Kudin, V. N. Staroverov, T. Keith, R. Kobayashi, J. Normand, 
 K. Raghavachari, A. Rendell, J. C. Burant, S. S. Iyengar, J. Tomasi, 
 M. Cossi, N. Rega, J. M. Millam, M. Klene, J. E. Knox, J. B. Cross, 
 V. Bakken, C. Adamo, J. Jaramillo, R. Gomperts, R. E. Stratmann, 
 O. Yazyev, A. J. Austin, R. Cammi, C. Pomelli, J. W. Ochterski, 
 R. L. Martin, K. Morokuma, V. G. Zakrzewski, G. A. Voth, 
 P. Salvador, J. J. Dannenberg, S. Dapprich, A. D. Daniels, 
 O. Farkas, J. B. Foresman, J. V. Ortiz, J. Cioslowski, 
 and D. J. Fox, Gaussian, Inc., Wallingford CT, 2013.
 
 ******************************************
 Gaussian 09:  ES64L-G09RevE.01 30-Nov-2015
                12-Jan-2018 
 ******************************************
 %chk=methyl.df-bp86svp.chk
 %nproc=4
 Will use up to    4 processors via shared memory.
 %mem=16000MB
 ----------------------------------------------------------------------
 #P UBP86/def2SVP/W06 DenFit opt (MaxCycle=100) scf=(xqc, MaxConvention
 alCycle=500) int = (ultrafinegrid) gfinput gfoldprint iop(6/7=3) symme
 try=loose pop = full
 ----------------------------------------------------------------------
 1/6=100,14=-1,18=20,19=15,26=4,38=1/1,3;
 2/9=110,12=2,17=4,18=3,40=1/2;
 3/5=43,7=101,11=2,16=1,24=11,25=1,30=1,71=1,74=404,75=-5,82=40,116=2/1,2,3;
 4//1;
 5/5=2,8=3,13=1,38=5,85=500/2,8;
 6/7=3,28=1/1;
 7//1,2,3,16;
 1/6=100,14=-1,18=20,19=15,26=4/3(2);
 2/9=110/2;
 99//99;
 2/9=110/2;
 3/5=43,7=101,11=2,16=1,25=1,30=1,71=1,74=404,75=-5,82=40,116=2/1,2,3;
 4/5=5,16=3,69=1/1;
 5/5=2,8=3,13=1,38=5,85=500/2,8;
 7//1,2,3,16;
 1/6=100,14=-1,18=20,19=15,26=4/3(-5);
 2/9=110/2;
 6/7=3,19=2,28=1/1;
 99/9=1/99;
 Leave Link    1 at Fri Jan 12 21:06:10 2018, MaxMem=  2097152000 cpu:         0.4
 (Enter /home/chemsoft/gaussian/g09e01/g09/l101.exe)
 ------------------------
 Methane DF-BP86/def2-SVP
 ------------------------
 Symbolic Z-matrix:
 Charge =  0 Multiplicity = 2
 C                     0.        0.        0. 
 H                     0.6304    0.6304    0.6304 
 H                     0.6304   -0.6304   -0.6304 
 H                    -0.6304    0.6304   -0.6304 
 
 NAtoms=      4 NQM=        4 NQMF=       0 NMMI=      0 NMMIF=      0
                NMic=       0 NMicF=      0.
                    Isotopes and Nuclear Properties:
 (Nuclear quadrupole moments (NQMom) in fm**2, nuclear magnetic moments (NMagM)
  in nuclear magnetons)

  Atom         1           2           3           4
 IAtWgt=          12           1           1           1
 AtmWgt=  12.0000000   1.0078250   1.0078250   1.0078250
 NucSpn=           0           1           1           1
 AtZEff=   0.0000000   0.0000000   0.0000000   0.0000000
 NQMom=    0.0000000   0.0000000   0.0000000   0.0000000
 NMagM=    0.0000000   2.7928460   2.7928460   2.7928460
 AtZNuc=   6.0000000   1.0000000   1.0000000   1.0000000
 Leave Link  101 at Fri Jan 12 21:06:10 2018, MaxMem=  2097152000 cpu:         2.2
 (Enter /home/chemsoft/gaussian/g09e01/g09/l103.exe)

 GradGradGradGradGradGradGradGradGradGradGradGradGradGradGradGradGradGrad
 Berny optimization.
 Initialization pass.
                           ----------------------------
                           !    Initial Parameters    !
                           ! (Angstroms and Degrees)  !
 --------------------------                            --------------------------
 ! Name  Definition              Value          Derivative Info.                !
 --------------------------------------------------------------------------------
 ! R1    R(1,2)                  1.0919         estimate D2E/DX2                !
 ! R2    R(1,3)                  1.0919         estimate D2E/DX2                !
 ! R3    R(1,4)                  1.0919         estimate D2E/DX2                !
 ! A1    A(2,1,3)              109.4712         estimate D2E/DX2                !
 ! A2    A(2,1,4)              109.4712         estimate D2E/DX2                !
 ! A3    A(3,1,4)              109.4712         estimate D2E/DX2                !
 ! D1    D(2,1,4,3)            120.0            estimate D2E/DX2                !
 --------------------------------------------------------------------------------
 Trust Radius=3.00D-01 FncErr=1.00D-07 GrdErr=1.00D-06
 Number of steps in this run=    100 maximum allowed number of steps=    100.
 GradGradGradGradGradGradGradGradGradGradGradGradGradGradGradGradGradGrad

 Leave Link  103 at Fri Jan 12 21:06:10 2018, MaxMem=  2097152000 cpu:         0.0
 (Enter /home/chemsoft/gaussian/g09e01/g09/l202.exe)
                          Input orientation:                          
 ---------------------------------------------------------------------
 Center     Atomic      Atomic             Coordinates (Angstroms)
 Number     Number       Type             X           Y           Z
 ---------------------------------------------------------------------
      1          6           0        0.000000    0.000000    0.000000
      2          1           0        0.630397    0.630397    0.630397
      3          1           0        0.630397   -0.630397   -0.630397
      4          1           0       -0.630397    0.630397   -0.630397
 ---------------------------------------------------------------------
                    Distance matrix (angstroms):
                    1          2          3          4
     1  C    0.000000
     2  H    1.091880   0.000000
     3  H    1.091880   1.783032   0.000000
     4  H    1.091880   1.783032   1.783032   0.000000
 Stoichiometry    CH3(2)
 Framework group  C3V[C3(C),3SGV(H)]
 Deg. of freedom     2
 Full point group                 C3V     NOp   6
 Largest Abelian subgroup         CS      NOp   2
 Largest concise Abelian subgroup CS      NOp   2
                         Standard orientation:                         
 ---------------------------------------------------------------------
 Center     Atomic      Atomic             Coordinates (Angstroms)
 Number     Number       Type             X           Y           Z
 ---------------------------------------------------------------------
      1          6           0       -0.000000   -0.000000    0.121320
      2          1           0       -0.000000    1.029434   -0.242640
      3          1           0        0.891516   -0.514717   -0.242640
      4          1           0       -0.891516   -0.514717   -0.242640
 ---------------------------------------------------------------------
 Rotational constants (GHZ):    262.9515025    262.9515025    157.7298137
 Leave Link  202 at Fri Jan 12 21:06:10 2018, MaxMem=  2097152000 cpu:         0.0
 (Enter /home/chemsoft/gaussian/g09e01/g09/l301.exe)
 Standard basis: def2SVP (5D, 7F)
 ======================================================================================================
                                       Pseudopotential Parameters
 ======================================================================================================
  Center     Atomic      Valence      Angular      Power
  Number     Number     Electrons     Momentum     of R      Exponent        Coefficient   SO-Coeffient
 ======================================================================================================
    1          6
                                   No pseudopotential on this center.
    2          1
                                   No pseudopotential on this center.
    3          1
                                   No pseudopotential on this center.
    4          1
                                   No pseudopotential on this center.
 ======================================================================================================
 Ernie: Thresh=  0.10000D-02 Tol=  0.10000D-05 Strict=F.
 AO basis set in the form of general basis input (Overlap normalization):
      1 0
 S   5 1.00       0.000000000000
      0.1238401694D+04  0.5517365048D-02
      0.1862900499D+03  0.4108882856D-01
      0.4225117635D+02  0.1822538213D+00
      0.1167655793D+02  0.4682845944D+00
      0.3593050648D+01  0.4457581734D+00
 S   1 1.00       0.000000000000
      0.4024514736D+00  0.1000000000D+01
 S   1 1.00       0.000000000000
      0.1309018267D+00  0.1000000000D+01
 P   3 1.00       0.000000000000
      0.9468097062D+01  0.5688833201D-01
      0.2010354514D+01  0.3129405934D+00
      0.5477100471D+00  0.7606501651D+00
 P   1 1.00       0.000000000000
      0.1526861379D+00  0.1000000000D+01
 D   1 1.00       0.000000000000
      0.8000000000D+00  0.1000000000D+01
 ****
      2 0
 S   3 1.00       0.000000000000
      0.1301070100D+02  0.3348548481D-01
      0.1962257200D+01  0.2347218709D+00
      0.4445379600D+00  0.8137702853D+00
 S   1 1.00       0.000000000000
      0.1219496200D+00  0.1000000000D+01
 P   1 1.00       0.000000000000
      0.8000000000D+00  0.1000000000D+01
 ****
      3 0
 S   3 1.00       0.000000000000
      0.1301070100D+02  0.3348548481D-01
      0.1962257200D+01  0.2347218709D+00
      0.4445379600D+00  0.8137702853D+00
 S   1 1.00       0.000000000000
      0.1219496200D+00  0.1000000000D+01
 P   1 1.00       0.000000000000
      0.8000000000D+00  0.1000000000D+01
 ****
      4 0
 S   3 1.00       0.000000000000
      0.1301070100D+02  0.3348548481D-01
      0.1962257200D+01  0.2347218709D+00
      0.4445379600D+00  0.8137702853D+00
 S   1 1.00       0.000000000000
      0.1219496200D+00  0.1000000000D+01
 P   1 1.00       0.000000000000
      0.8000000000D+00  0.1000000000D+01
 ****

 ***********************************************************************************************************************************
 *             ATOMIC CENTER             *        ATOMIC ORBITAL       *                     GAUSSIAN FUNCTIONS                    *
 ***********************************************************************************************************************************
 *                                       * FUNCTION    SHELL    SCALE  *                                                           *
 *    ATOM   X-COORD  Y-COORD  Z-COORD   *  NUMBER     TYPE     FACTOR *  EXPONENT    S-COEF      P-COEF      D-COEF      F-COEF   *
 ***********************************************************************************************************************************
 *     C      0.00000 -0.00000  0.22926                                                                                            *
+                                                1   S           1.00                                                               
+                                                                      0.123840D+040.820896D+000.000000D+000.000000D+000.000000D+00 
 *                                                                     0.186290D+030.147664D+010.000000D+000.000000D+000.000000D+00*
 *                                                                     0.422512D+020.215261D+010.000000D+000.000000D+000.000000D+00*
 *                                                                     0.116766D+020.210817D+010.000000D+000.000000D+000.000000D+00*
 *                                                                     0.359305D+010.829100D+000.000000D+000.000000D+000.000000D+00*
 *                                               2   S           1.00                                                              *
+                                                                      0.402451D+000.360118D+000.000000D+000.000000D+000.000000D+00 
 *                                               3   S           1.00                                                              *
+                                                                      0.130902D+000.155103D+000.000000D+000.000000D+000.000000D+00 
 *                                           4-  6   P           1.00                                                              *
+                                                                      0.946810D+010.000000D+000.134676D+010.000000D+000.000000D+00 
 *                                                                     0.201035D+010.000000D+000.106781D+010.000000D+000.000000D+00*
 *                                                                     0.547710D+000.000000D+000.510874D+000.000000D+000.000000D+00*
 *                                           7-  9   P           1.00                                                              *
+                                                                      0.152686D+000.000000D+000.136047D+000.000000D+000.000000D+00 
 *                                          10- 14   D           1.00                                                              *
+                                                                      0.800000D+000.000000D+000.000000D+000.111382D+010.000000D+00 
 *---------------------------------------------------------------------------------------------------------------------------------*
 *     H      0.00000  1.94535 -0.45852                                                                                            *
+                                               15   S           1.00                                                               
+                                                                      0.130107D+020.163490D+000.000000D+000.000000D+000.000000D+00 
 *                                                                     0.196226D+010.277352D+000.000000D+000.000000D+000.000000D+00*
 *                                                                     0.444538D+000.315750D+000.000000D+000.000000D+000.000000D+00*
 *                                              16   S           1.00                                                              *
+                                                                      0.121950D+000.147077D+000.000000D+000.000000D+000.000000D+00 
 *                                          17- 19   P           1.00                                                              *
+                                                                      0.800000D+000.000000D+000.107846D+010.000000D+000.000000D+00 
 *---------------------------------------------------------------------------------------------------------------------------------*
 *     H      1.68472 -0.97267 -0.45852                                                                                            *
+                                               20   S           1.00                                                               
+                                                                      0.130107D+020.163490D+000.000000D+000.000000D+000.000000D+00 
 *                                                                     0.196226D+010.277352D+000.000000D+000.000000D+000.000000D+00*
 *                                                                     0.444538D+000.315750D+000.000000D+000.000000D+000.000000D+00*
 *                                              21   S           1.00                                                              *
+                                                                      0.121950D+000.147077D+000.000000D+000.000000D+000.000000D+00 
 *                                          22- 24   P           1.00                                                              *
+                                                                      0.800000D+000.000000D+000.107846D+010.000000D+000.000000D+00 
 *---------------------------------------------------------------------------------------------------------------------------------*
 *     H     -1.68472 -0.97267 -0.45852                                                                                            *
+                                               25   S           1.00                                                               
+                                                                      0.130107D+020.163490D+000.000000D+000.000000D+000.000000D+00 
 *                                                                     0.196226D+010.277352D+000.000000D+000.000000D+000.000000D+00*
 *                                                                     0.444538D+000.315750D+000.000000D+000.000000D+000.000000D+00*
 *                                              26   S           1.00                                                              *
+                                                                      0.121950D+000.147077D+000.000000D+000.000000D+000.000000D+00 
 *                                          27- 29   P           1.00                                                              *
+                                                                      0.800000D+000.000000D+000.107846D+010.000000D+000.000000D+00 
 ***********************************************************************************************************************************
 There are    20 symmetry adapted cartesian basis functions of A'  symmetry.
 There are    10 symmetry adapted cartesian basis functions of A"  symmetry.
 There are    19 symmetry adapted basis functions of A'  symmetry.
 There are    10 symmetry adapted basis functions of A"  symmetry.
    29 basis functions,    46 primitive gaussians,    30 cartesian basis functions
     5 alpha electrons        4 beta electrons
       nuclear repulsion energy         9.6140179250 Hartrees.
 IExCor=  404 DFT=T Ex=B Corr=P86 ExCW=0 ScaHFX=  0.000000
 ScaDFX=  1.000000  1.000000  1.000000  1.000000 ScalE2=  1.000000  1.000000
 IRadAn=      5 IRanWt=     -1 IRanGd=            0 ICorTp=0 IEmpDi=  4
 NAtoms=    4 NActive=    4 NUniq=    2 SFac= 4.00D+00 NAtFMM=   60 NAOKFM=F Big=F
 Integral buffers will be    131072 words long.
 Raffenetti 2 integral format.
 Two-electron integral symmetry is turned on.
 Standard density basis: W06 (5D, 7F)
    82 Density fitting functions
 Density basis set in the form of general basis input (Coulomb normalization):
      1 0
 S   7 1.00       0.000000000000
      0.1861091633D+04  0.1630432275D-02
      0.6429939764D+03  0.6165022455D-02
      0.2351105725D+03  0.3437464972D-01
      0.9070288940D+02  0.1300917169D+00
      0.3677945520D+02  0.3381150662D+00
      0.1560462730D+02  0.4227614567D+00
      0.6890729400D+01  0.1055268299D+00
 S   1 1.00       0.000000000000
      0.3147885000D+01 -0.1000000000D+01
 S   1 1.00       0.000000000000
      0.1477728700D+01  0.1000000000D+01
 S   1 1.00       0.000000000000
      0.7076466000D+00  0.1000000000D+01
 S   1 1.00       0.000000000000
      0.3430122000D+00  0.1000000000D+01
 S   1 1.00       0.000000000000
      0.1669453000D+00  0.1000000000D+01
 P   2 1.00       0.000000000000
      0.1354728920D+02 -0.5516210369D+00
      0.5466941900D+01 -0.4848245610D+00
 P   1 1.00       0.000000000000
      0.2175172100D+01  0.1000000000D+01
 P   1 1.00       0.000000000000
      0.8582194000D+00  0.1000000000D+01
 P   1 1.00       0.000000000000
      0.3376720000D+00  0.1000000000D+01
 D   2 1.00       0.000000000000
      0.5928725300D+01 -0.2191848255D+00
      0.1980920900D+01 -0.8002209528D+00
 D   1 1.00       0.000000000000
      0.8055417000D+00 -0.1000000000D+01
 D   1 1.00       0.000000000000
      0.3531244000D+00 -0.1000000000D+01
 F   2 1.00       0.000000000000
      0.1675562600D+01  0.4584544753D+00
      0.5997536000D+00  0.6032297392D+00
 G   1 1.00       0.000000000000
      0.1002460000D+01 -0.1000000000D+01
 ****
      2 0
 S   3 1.00       0.000000000000
      0.1567529270D+02  0.3261158972D-01
      0.3606357800D+01  0.2298046837D+00
      0.1208001600D+01  0.7572083240D+00
 S   1 1.00       0.000000000000
      0.4726794000D+00  0.1000000000D+01
 S   1 1.00       0.000000000000
      0.2018100000D+00  0.1000000000D+01
 P   2 1.00       0.000000000000
      0.2028136500D+01  0.3618361986D+00
      0.5358730000D+00  0.7039303088D+00
 D   1 1.00       0.000000000000
      0.2216512400D+01  0.1000000000D+01
 ****
      3 0
 S   3 1.00       0.000000000000
      0.1567529270D+02  0.3261158972D-01
      0.3606357800D+01  0.2298046837D+00
      0.1208001600D+01  0.7572083240D+00
 S   1 1.00       0.000000000000
      0.4726794000D+00  0.1000000000D+01
 S   1 1.00       0.000000000000
      0.2018100000D+00  0.1000000000D+01
 P   2 1.00       0.000000000000
      0.2028136500D+01  0.3618361986D+00
      0.5358730000D+00  0.7039303088D+00
 D   1 1.00       0.000000000000
      0.2216512400D+01  0.1000000000D+01
 ****
      4 0
 S   3 1.00       0.000000000000
      0.1567529270D+02  0.3261158972D-01
      0.3606357800D+01  0.2298046837D+00
      0.1208001600D+01  0.7572083240D+00
 S   1 1.00       0.000000000000
      0.4726794000D+00  0.1000000000D+01
 S   1 1.00       0.000000000000
      0.2018100000D+00  0.1000000000D+01
 P   2 1.00       0.000000000000
      0.2028136500D+01  0.3618361986D+00
      0.5358730000D+00  0.7039303088D+00
 D   1 1.00       0.000000000000
      0.2216512400D+01  0.1000000000D+01
 ****

 There are    82 symmetry adapted density basis functions of A   symmetry.
 Leave Link  301 at Fri Jan 12 21:06:11 2018, MaxMem=  2097152000 cpu:         0.6
 (Enter /home/chemsoft/gaussian/g09e01/g09/l302.exe)
 NPDir=0 NMtPBC=     1 NCelOv=     1 NCel=       1 NClECP=     1 NCelD=      1
         NCelK=      1 NCelE2=     1 NClLst=     1 CellRange=     0.0.
 One-electron integrals computed using PRISM.
 One-electron integral symmetry used in STVInt
   6 Symmetry operations used in ECPInt.
 ECPInt:  NShTT=     120 NPrTT=     400 LenC2=     121 LenP2D=     391.
 LDataN:  DoStor=T MaxTD1= 4 Len=   56
 NBasis=    29 RedAO= T EigKep=  2.24D-02  NBF=    19    10
 NBsUse=    29 1.00D-06 EigRej= -1.00D+00 NBFU=    19    10
 NBasis=       29 NBas6D=       30 NTT=         435   NTT6D=      465
 NDBShl=       30 NDBF=         82 NDBF6D=       97  NNucDB=        0
 IDenFi=        2 ISolve=        0 FullAP=F BlkAPC=T NucTyp=        0
 TolInv= 1.00D-06 TolIt=  1.00D-10 IR12=0.
 FoFCou: FMM=F IPFlag=           0 FMFlag=           0 FMFlg1=           0
         NFxFlg=           0 DoJE=F BraDBF=T KetDBF=T FulRan=T
         wScrn=  0.000000 ICntrl=     600 IOpCl=  3 I1Cent=           6 NGrid=           0
         NMat0=    1 NMatS0=     97 NMatT0=    0 NMatD0=    1 NMtDS0=    0 NMtDT0=    0
 Petite list used in FoFCou.
 DBF EigKep=  1.63D-04 EigRej= -1.00D+00
 NDBF=     82  NBFD=    82
 NRank=    82 NBFDU=    82
 S*AI*S=  4.80373410348    
 Precomputing XC quadrature grid using
 IXCGrd= 4 IRadAn=           5 IRanWt=          -1 IRanGd=           0 AccXCQ= 0.00D+00.
 Generated NRdTot=       0 NPtTot=           0 NUsed=           0 NTot=          32
 NSgBfM=    30    30    30    30    30 MxSgAt=     4 MxSgA2=     4.
 Leave Link  302 at Fri Jan 12 21:06:11 2018, MaxMem=  2097152000 cpu:         1.3
 (Enter /home/chemsoft/gaussian/g09e01/g09/l303.exe)
 DipDrv:  MaxL=1.
 Leave Link  303 at Fri Jan 12 21:06:11 2018, MaxMem=  2097152000 cpu:         0.2
 (Enter /home/chemsoft/gaussian/g09e01/g09/l401.exe)
 ExpMin= 1.22D-01 ExpMax= 1.24D+03 ExpMxC= 1.86D+02 IAcc=3 IRadAn=         5 AccDes= 0.00D+00
 Harris functional with IExCor=  404 and IRadAn=       5 diagonalized for initial guess.
 HarFok:  IExCor=  404 AccDes= 0.00D+00 IRadAn=         5 IDoV= 1 UseB2=F ITyADJ=14
 ICtDFT=  3500011 ScaDFX=  1.000000  1.000000  1.000000  1.000000
 FoFCou: FMM=F IPFlag=           0 FMFlag=      100000 FMFlg1=           0
         NFxFlg=           0 DoJE=T BraDBF=F KetDBF=T FulRan=T
         wScrn=  0.000000 ICntrl=     500 IOpCl=  0 I1Cent=   200000004 NGrid=           0
         NMat0=    1 NMatS0=      1 NMatT0=    0 NMatD0=    1 NMtDS0=    0 NMtDT0=    0
 Petite list used in FoFCou.
 Harris En= -39.8037595851617    
 JPrj=0 DoOrth=F DoCkMO=F.
 Initial guess orbital symmetries:
 Alpha Orbitals:
       Occupied  (A1) (A1) (E) (E) (A1)
       Virtual   (A1) (E) (E) (E) (E) (A1) (A1) (A1) (E) (E) (E)
                 (E) (A2) (A1) (E) (E) (E) (E) (A1) (E) (E) (A1)
                 (E) (E)
 Beta  Orbitals:
       Occupied  (A1) (A1) (E) (E)
       Virtual   (A1) (A1) (E) (E) (E) (E) (A1) (A1) (A1) (E) (E)
                 (E) (E) (A2) (A1) (E) (E) (E) (E) (A1) (E) (E)
                 (A1) (E) (E)
 The electronic state of the initial guess is 2-A1.
 Initial guess <Sx>= 0.0000 <Sy>= 0.0000 <Sz>= 0.5000 <S**2>= 0.7500 S= 0.5000
 Leave Link  401 at Fri Jan 12 21:06:11 2018, MaxMem=  2097152000 cpu:         0.9
 (Enter /home/chemsoft/gaussian/g09e01/g09/l502.exe)
 UHF open shell SCF:
 Density fitting will be used, IDenFit= 2 NucTyp=  0.
 Using DIIS extrapolation, IDIIS=  1040.
 Integral symmetry usage will be decided dynamically.
 IVT=      257426 IEndB=      257426 NGot=  2097152000 MDV=  2097146505
 LenX=  2097146505 LenY=  2097145164
 Requested convergence on RMS density matrix=1.00D-08 within 500 cycles.
 Requested convergence on MAX density matrix=1.00D-06.
 Requested convergence on             energy=1.00D-06.
 No special actions if energy rises.
 Fock matrices will be formed incrementally for  20 cycles.

 Cycle   1  Pass 0  IDiag  1:
 FoFCou: FMM=F IPFlag=           0 FMFlag=      100000 FMFlg1=           0
         NFxFlg=           0 DoJE=T BraDBF=T KetDBF=F FulRan=T
         wScrn=  0.000000 ICntrl=     500 IOpCl=  0 I1Cent=           5 NGrid=           0
         NMat0=    1 NMatS0=      1 NMatT0=    0 NMatD0=    1 NMtDS0=    0 NMtDT0=    0
 Petite list used in FoFCou.
 FoFJK:  IHMeth= 1 ICntrl=     500 DoSepK=F KAlg= 0 I1Cent=   4 FoldK=F
 IRaf= 990000000 NMat=   1 IRICut=       1 DoRegI=T DoRafI=F ISym2E= 1.
 E= -39.7574015504344    
 DIIS: error= 3.93D-02 at cycle   1 NSaved=   1.
 NSaved= 1 IEnMin= 1 EnMin= -39.7574015504344     IErMin= 1 ErrMin= 3.93D-02
 ErrMax= 3.93D-02  0.00D+00 EMaxC= 1.00D-01 BMatC= 1.12D-01 BMatP= 1.12D-01
 IDIUse=3 WtCom= 6.07D-01 WtEn= 3.93D-01
 Coeff-Com:  0.100D+01
 Coeff-En:   0.100D+01
 Coeff:      0.100D+01
 Gap=     0.231 Goal=   None    Shift=    0.000
 Gap=     0.241 Goal=   None    Shift=    0.000
 GapD=    0.231 DampG=1.000 DampE=0.500 DampFc=0.5000 IDamp=-1.
 Damping current iteration by 5.00D-01
 RMSDP=1.34D-02 MaxDP=1.31D-01              OVMax= 1.51D-01

 Cycle   2  Pass 0  IDiag  1:
 RMSU=  6.49D-03    CP:  9.67D-01
 E= -39.7721344991754     Delta-E=       -0.014732948741 Rises=F Damp=T
 DIIS: error= 6.54D-03 at cycle   2 NSaved=   2.
 NSaved= 2 IEnMin= 2 EnMin= -39.7721344991754     IErMin= 2 ErrMin= 6.54D-03
 ErrMax= 6.54D-03  0.00D+00 EMaxC= 1.00D-01 BMatC= 5.75D-03 BMatP= 1.12D-01
 IDIUse=3 WtCom= 9.35D-01 WtEn= 6.54D-02
 Coeff-Com:  0.114D+00 0.886D+00
 Coeff-En:   0.175D+00 0.825D+00
 Coeff:      0.118D+00 0.882D+00
 Gap=     0.285 Goal=   None    Shift=    0.000
 Gap=     0.226 Goal=   None    Shift=    0.000
 RMSDP=1.74D-03 MaxDP=1.67D-02 DE=-1.47D-02 OVMax= 7.86D-02

 Cycle   3  Pass 0  IDiag  1:
 RMSU=  1.59D-03    CP:  9.70D-01  8.90D-01
 E= -39.7924419597318     Delta-E=       -0.020307460556 Rises=F Damp=F
 DIIS: error= 2.19D-03 at cycle   3 NSaved=   3.
 NSaved= 3 IEnMin= 3 EnMin= -39.7924419597318     IErMin= 3 ErrMin= 2.19D-03
 ErrMax= 2.19D-03  0.00D+00 EMaxC= 1.00D-01 BMatC= 3.58D-04 BMatP= 5.75D-03
 IDIUse=3 WtCom= 9.78D-01 WtEn= 2.19D-02
 Coeff-Com:  0.553D-02 0.157D+00 0.838D+00
 Coeff-En:   0.000D+00 0.000D+00 0.100D+01
 Coeff:      0.541D-02 0.153D+00 0.841D+00
 Gap=     0.286 Goal=   None    Shift=    0.000
 Gap=     0.233 Goal=   None    Shift=    0.000
 RMSDP=5.00D-04 MaxDP=6.00D-03 DE=-2.03D-02 OVMax= 9.16D-03

 Cycle   4  Pass 0  IDiag  1:
 RMSU=  4.90D-04    CP:  9.69D-01  8.87D-01  9.42D-01
 E= -39.7925509014679     Delta-E=       -0.000108941736 Rises=F Damp=F
 DIIS: error= 8.60D-04 at cycle   4 NSaved=   4.
 NSaved= 4 IEnMin= 4 EnMin= -39.7925509014679     IErMin= 4 ErrMin= 8.60D-04
 ErrMax= 8.60D-04  0.00D+00 EMaxC= 1.00D-01 BMatC= 4.34D-05 BMatP= 3.58D-04
 IDIUse=3 WtCom= 9.91D-01 WtEn= 8.60D-03
 Coeff-Com: -0.433D-02-0.148D-01 0.220D+00 0.799D+00
 Coeff-En:   0.000D+00 0.000D+00 0.000D+00 0.100D+01
 Coeff:     -0.430D-02-0.147D-01 0.219D+00 0.800D+00
 Gap=     0.287 Goal=   None    Shift=    0.000
 Gap=     0.233 Goal=   None    Shift=    0.000
 RMSDP=1.50D-04 MaxDP=1.77D-03 DE=-1.09D-04 OVMax= 1.70D-03

 Cycle   5  Pass 0  IDiag  1:
 RMSU=  9.37D-05    CP:  9.69D-01  8.88D-01  9.81D-01  7.98D-01
 E= -39.7925647089331     Delta-E=       -0.000013807465 Rises=F Damp=F
 DIIS: error= 1.15D-04 at cycle   5 NSaved=   5.
 NSaved= 5 IEnMin= 5 EnMin= -39.7925647089331     IErMin= 5 ErrMin= 1.15D-04
 ErrMax= 1.15D-04  0.00D+00 EMaxC= 1.00D-01 BMatC= 6.98D-07 BMatP= 4.34D-05
 IDIUse=3 WtCom= 9.99D-01 WtEn= 1.15D-03
 Coeff-Com: -0.684D-03-0.420D-02-0.441D-01-0.316D-01 0.108D+01
 Coeff-En:   0.000D+00 0.000D+00 0.000D+00 0.000D+00 0.100D+01
 Coeff:     -0.683D-03-0.420D-02-0.440D-01-0.316D-01 0.108D+01
 Gap=     0.287 Goal=   None    Shift=    0.000
 Gap=     0.233 Goal=   None    Shift=    0.000
 RMSDP=2.94D-05 MaxDP=3.79D-04 DE=-1.38D-05 OVMax= 4.14D-04

 Cycle   6  Pass 0  IDiag  1:
 RMSU=  1.36D-05    CP:  9.69D-01  8.89D-01  9.90D-01  8.33D-01  1.14D+00
 E= -39.7925653459322     Delta-E=       -0.000000636999 Rises=F Damp=F
 DIIS: error= 1.91D-05 at cycle   6 NSaved=   6.
 NSaved= 6 IEnMin= 6 EnMin= -39.7925653459322     IErMin= 6 ErrMin= 1.91D-05
 ErrMax= 1.91D-05  0.00D+00 EMaxC= 1.00D-01 BMatC= 2.06D-08 BMatP= 6.98D-07
 IDIUse=1 WtCom= 1.00D+00 WtEn= 0.00D+00
 Coeff-Com:  0.370D-03 0.120D-02-0.325D-02-0.253D-01-0.127D+00 0.115D+01
 Coeff:      0.370D-03 0.120D-02-0.325D-02-0.253D-01-0.127D+00 0.115D+01
 Gap=     0.287 Goal=   None    Shift=    0.000
 Gap=     0.233 Goal=   None    Shift=    0.000
 RMSDP=5.92D-06 MaxDP=5.70D-05 DE=-6.37D-07 OVMax= 8.03D-05

 Initial convergence to 1.0D-05 achieved.  Increase integral accuracy.
 Cycle   7  Pass 1  IDiag  1:
 E= -39.7925641402591     Delta-E=        0.000001205673 Rises=F Damp=F
 DIIS: error= 1.70D-06 at cycle   1 NSaved=   1.
 NSaved= 1 IEnMin= 1 EnMin= -39.7925641402591     IErMin= 1 ErrMin= 1.70D-06
 ErrMax= 1.70D-06  0.00D+00 EMaxC= 1.00D-01 BMatC= 2.49D-10 BMatP= 2.49D-10
 IDIUse=1 WtCom= 1.00D+00 WtEn= 0.00D+00
 Coeff-Com:  0.100D+01
 Coeff:      0.100D+01
 Gap=     0.287 Goal=   None    Shift=    0.000
 Gap=     0.233 Goal=   None    Shift=    0.000
 RMSDP=5.92D-06 MaxDP=5.70D-05 DE= 1.21D-06 OVMax= 6.65D-06

 Cycle   8  Pass 1  IDiag  1:
 RMSU=  4.50D-07    CP:  1.00D+00
 E= -39.7925641403701     Delta-E=       -0.000000000111 Rises=F Damp=F
 DIIS: error= 9.15D-07 at cycle   2 NSaved=   2.
 NSaved= 2 IEnMin= 2 EnMin= -39.7925641403701     IErMin= 2 ErrMin= 9.15D-07
 ErrMax= 9.15D-07  0.00D+00 EMaxC= 1.00D-01 BMatC= 4.36D-11 BMatP= 2.49D-10
 IDIUse=1 WtCom= 1.00D+00 WtEn= 0.00D+00
 Coeff-Com:  0.128D+00 0.872D+00
 Coeff:      0.128D+00 0.872D+00
 Gap=     0.287 Goal=   None    Shift=    0.000
 Gap=     0.233 Goal=   None    Shift=    0.000
 RMSDP=2.34D-07 MaxDP=2.67D-06 DE=-1.11D-10 OVMax= 2.94D-06

 Cycle   9  Pass 1  IDiag  1:
 RMSU=  2.33D-07    CP:  1.00D+00  9.67D-01
 E= -39.7925641403774     Delta-E=       -0.000000000007 Rises=F Damp=F
 DIIS: error= 7.62D-07 at cycle   3 NSaved=   3.
 NSaved= 3 IEnMin= 3 EnMin= -39.7925641403774     IErMin= 3 ErrMin= 7.62D-07
 ErrMax= 7.62D-07  0.00D+00 EMaxC= 1.00D-01 BMatC= 3.47D-11 BMatP= 4.36D-11
 IDIUse=1 WtCom= 1.00D+00 WtEn= 0.00D+00
 Coeff-Com: -0.814D-01 0.489D+00 0.592D+00
 Coeff:     -0.814D-01 0.489D+00 0.592D+00
 Gap=     0.287 Goal=   None    Shift=    0.000
 Gap=     0.233 Goal=   None    Shift=    0.000
 RMSDP=1.05D-07 MaxDP=1.31D-06 DE=-7.30D-12 OVMax= 1.52D-06

 Cycle  10  Pass 1  IDiag  1:
 RMSU=  5.26D-08    CP:  1.00D+00  1.10D+00  7.21D-01
 E= -39.7925641403877     Delta-E=       -0.000000000010 Rises=F Damp=F
 DIIS: error= 8.65D-08 at cycle   4 NSaved=   4.
 NSaved= 4 IEnMin= 4 EnMin= -39.7925641403877     IErMin= 4 ErrMin= 8.65D-08
 ErrMax= 8.65D-08  0.00D+00 EMaxC= 1.00D-01 BMatC= 5.26D-13 BMatP= 3.47D-11
 IDIUse=1 WtCom= 1.00D+00 WtEn= 0.00D+00
 Coeff-Com: -0.264D-01 0.165D-01 0.906D-01 0.919D+00
 Coeff:     -0.264D-01 0.165D-01 0.906D-01 0.919D+00
 Gap=     0.287 Goal=   None    Shift=    0.000
 Gap=     0.233 Goal=   None    Shift=    0.000
 RMSDP=1.96D-08 MaxDP=2.09D-07 DE=-1.03D-11 OVMax= 3.13D-07

 Cycle  11  Pass 1  IDiag  1:
 RMSU=  1.45D-08    CP:  1.00D+00  1.13D+00  7.55D-01  9.15D-01
 E= -39.7925641403880     Delta-E=       -0.000000000000 Rises=F Damp=F
 DIIS: error= 2.78D-08 at cycle   5 NSaved=   5.
 NSaved= 5 IEnMin= 5 EnMin= -39.7925641403880     IErMin= 5 ErrMin= 2.78D-08
 ErrMax= 2.78D-08  0.00D+00 EMaxC= 1.00D-01 BMatC= 5.20D-14 BMatP= 5.26D-13
 IDIUse=1 WtCom= 1.00D+00 WtEn= 0.00D+00
 Coeff-Com: -0.196D-02-0.299D-01-0.200D-01 0.233D+00 0.819D+00
 Coeff:     -0.196D-02-0.299D-01-0.200D-01 0.233D+00 0.819D+00
 Gap=     0.287 Goal=   None    Shift=    0.000
 Gap=     0.233 Goal=   None    Shift=    0.000
 RMSDP=6.48D-09 MaxDP=7.91D-08 DE=-2.84D-13 OVMax= 8.69D-08

 SCF Done:  E(UB-P86) =  -39.7925641404     A.U. after   11 cycles
            NFock= 11  Conv=0.65D-08     -V/T= 2.0133
 <Sx>= 0.0000 <Sy>= 0.0000 <Sz>= 0.5000 <S**2>= 0.7525 S= 0.5012
 <L.S>= 0.000000000000E+00
 KE= 3.927044707947D+01 PE=-1.107261391445D+02 EE= 2.204910999959D+01
 Annihilation of the first spin contaminant:
 S**2 before annihilation     0.7525,   after     0.7500
 Leave Link  502 at Fri Jan 12 21:06:16 2018, MaxMem=  2097152000 cpu:        16.9
 (Enter /home/chemsoft/gaussian/g09e01/g09/l508.exe)
 QCSCF skips out because SCF is already converged.
 Leave Link  508 at Fri Jan 12 21:06:16 2018, MaxMem=  2097152000 cpu:         0.0
 (Enter /home/chemsoft/gaussian/g09e01/g09/l601.exe)
 Copying SCF densities to generalized density rwf, IOpCl= 1 IROHF=0.

 **********************************************************************

            Population analysis using the SCF density.

 **********************************************************************

 Orbital symmetries:
 Alpha Orbitals:
       Occupied  (A1) (A1) (E) (E) (A1)
       Virtual   (A1) (E) (E) (E) (E) (A1) (A1) (A1) (E) (E) (E)
                 (E) (A1) (A2) (E) (E) (E) (E) (A1) (E) (E) (A1)
                 (E) (E)
 Beta  Orbitals:
       Occupied  (A1) (A1) (E) (E)
       Virtual   (A1) (A1) (E) (E) (E) (E) (A1) (A1) (A1) (E) (E)
                 (E) (E) (A2) (A1) (E) (E) (E) (E) (A1) (E) (E)
                 (A1) (E) (E)
 The electronic state is 2-A1.
 Alpha  occ. eigenvalues --   -9.93355  -0.61741  -0.36088  -0.36088  -0.22418
 Alpha virt. eigenvalues --    0.06287   0.11692   0.11692   0.38682   0.38682
 Alpha virt. eigenvalues --    0.41792   0.54081   0.59916   0.62581   0.62581
 Alpha virt. eigenvalues --    1.08583   1.08583   1.45616   1.45771   1.59223
 Alpha virt. eigenvalues --    1.59223   1.85940   1.85940   2.07030   2.33618
 Alpha virt. eigenvalues --    2.33618   2.59519   2.80681   2.80681
  Beta  occ. eigenvalues --   -9.91933  -0.58945  -0.34978  -0.34978
  Beta virt. eigenvalues --   -0.11692   0.07049   0.12676   0.12676   0.39778
  Beta virt. eigenvalues --    0.39778   0.50478   0.56636   0.61767   0.64035
  Beta virt. eigenvalues --    0.64035   1.10532   1.10532   1.45621   1.50900
  Beta virt. eigenvalues --    1.59741   1.59741   1.89150   1.89150   2.12251
  Beta virt. eigenvalues --    2.36790   2.36790   2.61989   2.82892   2.82892
     Alpha Molecular Orbital Coefficients:
                           1         2         3         4         5
                        (A1)--O   (A1)--O   (E)--O    (E)--O    (A1)--O
     Eigenvalues --    -9.93355  -0.61741  -0.36088  -0.36088  -0.22418
   1 1   C  1S          0.98789  -0.25680  -0.00000   0.00000  -0.08009
   2        2S          0.04985   0.51308   0.00000   0.00000   0.18847
   3        3S         -0.03432   0.18413  -0.00000   0.00000   0.25398
   4        4PX         0.00000   0.00000   0.00000   0.45783   0.00000
   5        4PY        -0.00000  -0.00000   0.45783   0.00000  -0.00000
   6        4PZ        -0.00261  -0.06183   0.00000   0.00000   0.58154
   7        5PX         0.00000   0.00000   0.00000   0.18285   0.00000
   8        5PY        -0.00000  -0.00000   0.18285   0.00000  -0.00000
   9        5PZ         0.00335  -0.00252   0.00000   0.00000   0.44010
  10        6D 0       -0.00150   0.00657   0.00000   0.00000   0.00392
  11        6D+1        0.00000   0.00000   0.00000  -0.01047   0.00000
  12        6D-1        0.00000  -0.00000  -0.01047   0.00000   0.00000
  13        6D+2        0.00000  -0.00000  -0.01428   0.00000  -0.00000
  14        6D-2        0.00000   0.00000   0.00000  -0.01428   0.00000
  15 2   H  1S         -0.00403   0.19164   0.36381   0.00000  -0.08188
  16        2S          0.00783   0.03130   0.14788   0.00000  -0.04971
  17        3PX         0.00000   0.00000   0.00000   0.01442   0.00000
  18        3PY         0.00259  -0.02087  -0.00842   0.00000   0.00510
  19        3PZ        -0.00118   0.00317   0.00424   0.00000   0.01628
  20 3   H  1S         -0.00403   0.19164  -0.18191   0.31507  -0.08188
  21        2S          0.00783   0.03130  -0.07394   0.12807  -0.04971
  22        3PX         0.00224  -0.01807   0.00989  -0.00271   0.00441
  23        3PY        -0.00129   0.01043   0.00871   0.00989  -0.00255
  24        3PZ        -0.00118   0.00317  -0.00212   0.00367   0.01628
  25 4   H  1S         -0.00403   0.19164  -0.18191  -0.31507  -0.08188
  26        2S          0.00783   0.03130  -0.07394  -0.12807  -0.04971
  27        3PX        -0.00224   0.01807  -0.00989  -0.00271  -0.00441
  28        3PY        -0.00129   0.01043   0.00871  -0.00989  -0.00255
  29        3PZ        -0.00118   0.00317  -0.00212  -0.00367   0.01628
                           6         7         8         9        10
                        (A1)--V   (E)--V    (E)--V    (E)--V    (E)--V
     Eigenvalues --     0.06287   0.11692   0.11692   0.38682   0.38682
   1 1   C  1S         -0.15329   0.00000   0.00000  -0.00000   0.00000
   2        2S          0.32786  -0.00000   0.00000   0.00000   0.00000
   3        3S          2.31417  -0.00000   0.00000  -0.00000   0.00000
   4        4PX         0.00000   0.00000  -0.41664   0.00000  -0.30112
   5        4PY        -0.00000  -0.41664   0.00000  -0.30112   0.00000
   6        4PZ        -0.15051   0.00000   0.00000   0.00000   0.00000
   7        5PX         0.00000   0.00000  -1.17632   0.00000   1.21405
   8        5PY        -0.00000  -1.17632   0.00000   1.21405   0.00000
   9        5PZ        -0.52578   0.00000   0.00000  -0.00000   0.00000
  10        6D 0        0.01189  -0.00000   0.00000  -0.00000   0.00000
  11        6D+1        0.00000   0.00000  -0.01168   0.00000   0.05136
  12        6D-1        0.00000  -0.01168   0.00000   0.05136   0.00000
  13        6D+2        0.00000  -0.01920   0.00000   0.07757   0.00000
  14        6D-2        0.00000   0.00000  -0.01920   0.00000   0.07757
  15 2   H  1S         -0.05771   0.15834   0.00000  -0.82124   0.00000
  16        2S         -1.18191   1.82613   0.00000   0.11513   0.00000
  17        3PX         0.00000   0.00000  -0.01422   0.00000   0.05231
  18        3PY        -0.01245   0.01309   0.00000   0.00757   0.00000
  19        3PZ         0.00371  -0.01077   0.00000   0.01379   0.00000
  20 3   H  1S         -0.05771  -0.07917   0.13713   0.41062  -0.71121
  21        2S         -1.18191  -0.91307   1.58148  -0.05757   0.09971
  22        3PX        -0.01078  -0.01182   0.00626   0.01937   0.01875
  23        3PY         0.00622  -0.00739  -0.01182   0.04112   0.01937
  24        3PZ         0.00371   0.00539  -0.00933  -0.00690   0.01194
  25 4   H  1S         -0.05771  -0.07917  -0.13713   0.41062   0.71121
  26        2S         -1.18191  -0.91307  -1.58148  -0.05757  -0.09971
  27        3PX         0.01078   0.01182   0.00626  -0.01937   0.01875
  28        3PY         0.00622  -0.00739   0.01182   0.04112  -0.01937
  29        3PZ         0.00371   0.00539   0.00933  -0.00690  -0.01194
                          11        12        13        14        15
                        (A1)--V   (A1)--V   (A1)--V   (E)--V    (E)--V
     Eigenvalues --     0.41792   0.54081   0.59916   0.62581   0.62581
   1 1   C  1S          0.13761   0.07300   0.26351   0.00000   0.00000
   2        2S         -0.82407  -1.00901  -1.62130  -0.00000   0.00000
   3        3S          1.26357   3.47606   3.97071   0.00000   0.00000
   4        4PX         0.00000   0.00000   0.00000   0.00000  -0.92414
   5        4PY        -0.00000   0.00000  -0.00000   0.92414   0.00000
   6        4PZ        -0.87675   0.15007   0.44880   0.00000   0.00000
   7        5PX         0.00000   0.00000   0.00000   0.00000   1.66407
   8        5PY         0.00000  -0.00000   0.00000  -1.66407   0.00000
   9        5PZ         0.86394  -0.93368  -0.83787  -0.00000   0.00000
  10        6D 0       -0.00214   0.12263  -0.07742  -0.00000   0.00000
  11        6D+1        0.00000   0.00000   0.00000   0.00000  -0.08215
  12        6D-1        0.00000   0.00000  -0.00000   0.08215   0.00000
  13        6D+2        0.00000   0.00000  -0.00000   0.11611   0.00000
  14        6D-2        0.00000   0.00000   0.00000   0.00000  -0.11611
  15 2   H  1S          0.02990  -0.68059   0.41943  -0.56061   0.00000
  16        2S         -0.23429  -0.66298  -1.38599   1.86141   0.00000
  17        3PX         0.00000   0.00000   0.00000   0.00000  -0.06037
  18        3PY        -0.01463  -0.04377   0.11439  -0.14118   0.00000
  19        3PZ        -0.01756  -0.05193  -0.01190   0.06852   0.00000
  20 3   H  1S          0.02990  -0.68059   0.41943   0.28031   0.48550
  21        2S         -0.23429  -0.66298  -1.38599  -0.93071  -1.61203
  22        3PX        -0.01267  -0.03791   0.09906   0.08727   0.09079
  23        3PY         0.00732   0.02189  -0.05719   0.00998  -0.08727
  24        3PZ        -0.01756  -0.05193  -0.01190  -0.03426  -0.05934
  25 4   H  1S          0.02990  -0.68059   0.41943   0.28031  -0.48550
  26        2S         -0.23429  -0.66298  -1.38599  -0.93071   1.61203
  27        3PX         0.01267   0.03791  -0.09906  -0.08727   0.09079
  28        3PY         0.00732   0.02189  -0.05719   0.00998   0.08727
  29        3PZ        -0.01756  -0.05193  -0.01190  -0.03426   0.05934
                          16        17        18        19        20
                        (E)--V    (E)--V    (A1)--V   (A2)--V   (E)--V
     Eigenvalues --     1.08583   1.08583   1.45616   1.45771   1.59223
   1 1   C  1S          0.00000   0.00000   0.04586   0.00000   0.00000
   2        2S          0.00000  -0.00000  -0.59537   0.00000  -0.00000
   3        3S          0.00000   0.00000   1.64077   0.00000   0.00000
   4        4PX         0.03827   0.00000   0.00000  -0.00000   0.00000
   5        4PY         0.00000   0.03827  -0.00000   0.00000  -0.05120
   6        4PZ         0.00000   0.00000  -0.04378   0.00000  -0.00000
   7        5PX         0.19727   0.00000   0.00000   0.00000   0.00000
   8        5PY         0.00000   0.19727  -0.00000   0.00000   0.79339
   9        5PZ         0.00000  -0.00000  -0.68045   0.00000  -0.00000
  10        6D 0        0.00000   0.00000  -0.52376   0.00000  -0.00000
  11        6D+1        0.35767   0.00000   0.00000  -0.00000   0.00000
  12        6D-1        0.00000   0.35767   0.00000   0.00000   0.00716
  13        6D+2        0.00000  -0.23741   0.00000   0.00000  -0.20238
  14        6D-2       -0.23741   0.00000   0.00000  -0.00000   0.00000
  15 2   H  1S          0.00000  -0.08721  -0.31847   0.00000  -0.35218
  16        2S          0.00000  -0.06324  -0.34323   0.00000  -0.20687
  17        3PX        -0.36725   0.00000   0.00000   0.59520   0.00000
  18        3PY         0.00000   0.14309  -0.00283   0.00000  -0.41846
  19        3PZ         0.00000   0.44079   0.44477   0.00000  -0.45263
  20 3   H  1S         -0.07552   0.04360  -0.31847  -0.00000   0.17609
  21        2S         -0.05477   0.03162  -0.34323   0.00000   0.10344
  22        3PX         0.01551  -0.22098  -0.00245  -0.29760  -0.06550
  23        3PY        -0.22098  -0.23966   0.00142  -0.51546  -0.53191
  24        3PZ         0.38174  -0.22040   0.44477  -0.00000   0.22631
  25 4   H  1S          0.07552   0.04360  -0.31847   0.00000   0.17609
  26        2S          0.05477   0.03162  -0.34323  -0.00000   0.10344
  27        3PX         0.01551   0.22098   0.00245  -0.29760   0.06550
  28        3PY         0.22098  -0.23966   0.00142   0.51546  -0.53191
  29        3PZ        -0.38174  -0.22040   0.44477   0.00000   0.22631
                          21        22        23        24        25
                        (E)--V    (E)--V    (E)--V    (A1)--V   (E)--V
     Eigenvalues --     1.59223   1.85940   1.85940   2.07030   2.33618
   1 1   C  1S          0.00000   0.00000   0.00000  -0.05919  -0.00000
   2        2S          0.00000   0.00000   0.00000   0.35189   0.00000
   3        3S          0.00000  -0.00000   0.00000   0.58511   0.00000
   4        4PX        -0.05120   0.00000   0.50096   0.00000   0.00000
   5        4PY         0.00000  -0.50096   0.00000  -0.00000  -0.21172
   6        4PZ         0.00000   0.00000   0.00000  -0.31463  -0.00000
   7        5PX         0.79339   0.00000   0.06449   0.00000   0.00000
   8        5PY         0.00000  -0.06449   0.00000  -0.00000  -0.46697
   9        5PZ         0.00000   0.00000   0.00000  -0.43659   0.00000
  10        6D 0        0.00000  -0.00000   0.00000   0.71769  -0.00000
  11        6D+1        0.00716   0.00000   0.49782   0.00000   0.00000
  12        6D-1        0.00000  -0.49782   0.00000  -0.00000   0.78390
  13        6D+2        0.00000  -0.29549   0.00000   0.00000  -0.66307
  14        6D-2       -0.20238   0.00000   0.29549   0.00000   0.00000
  15 2   H  1S          0.00000  -0.11022   0.00000  -0.11435   0.15512
  16        2S          0.00000   0.37738   0.00000  -0.23714   0.30540
  17        3PX        -0.56973   0.00000  -0.21142   0.00000   0.00000
  18        3PY         0.00000  -0.46089   0.00000   0.43026  -0.28876
  19        3PZ         0.00000   0.51584   0.00000   0.41755  -0.29777
  20 3   H  1S         -0.30499   0.05511   0.09545  -0.11435  -0.07756
  21        2S         -0.17916  -0.18869  -0.32682  -0.23714  -0.15270
  22        3PX        -0.45628   0.29112   0.29281   0.37262   0.41157
  23        3PY        -0.06550   0.04335  -0.29112  -0.21513   0.42410
  24        3PZ        -0.39199  -0.25792  -0.44673   0.41755   0.14889
  25 4   H  1S          0.30499   0.05511  -0.09545  -0.11435  -0.07756
  26        2S          0.17916  -0.18869   0.32682  -0.23714  -0.15270
  27        3PX        -0.45628  -0.29112   0.29281  -0.37262  -0.41157
  28        3PY         0.06550   0.04335   0.29112  -0.21513   0.42410
  29        3PZ         0.39199  -0.25792   0.44673   0.41755   0.14889
                          26        27        28        29
                        (E)--V    (A1)--V   (E)--V    (E)--V
     Eigenvalues --     2.33618   2.59519   2.80681   2.80681
   1 1   C  1S          0.00000  -0.25495   0.00000   0.00000
   2        2S          0.00000   1.54041   0.00000   0.00000
   3        3S          0.00000   1.06788  -0.00000   0.00000
   4        4PX        -0.21172   0.00000   0.00000  -1.10878
   5        4PY         0.00000  -0.00000  -1.10878   0.00000
   6        4PZ         0.00000  -0.55350   0.00000   0.00000
   7        5PX        -0.46697   0.00000   0.00000  -0.65406
   8        5PY         0.00000   0.00000  -0.65406   0.00000
   9        5PZ         0.00000  -0.23674   0.00000   0.00000
  10        6D 0        0.00000  -0.76803   0.00000   0.00000
  11        6D+1        0.78390   0.00000   0.00000   0.74429
  12        6D-1        0.00000  -0.00000   0.74429   0.00000
  13        6D+2        0.00000   0.00000   1.13860   0.00000
  14        6D-2       -0.66307   0.00000   0.00000   1.13860
  15 2   H  1S          0.00000  -0.69161   1.10544   0.00000
  16        2S          0.00000  -0.35033   0.46833   0.00000
  17        3PX         0.66172   0.00000   0.00000  -0.06392
  18        3PY         0.00000   0.79858  -1.11097   0.00000
  19        3PZ         0.00000  -0.37330   0.39417   0.00000
  20 3   H  1S          0.13434  -0.69161  -0.55272   0.95734
  21        2S          0.26448  -0.35033  -0.23417   0.40559
  22        3PX        -0.05114   0.69159   0.45339  -0.84921
  23        3PY         0.41157  -0.39929  -0.32568   0.45339
  24        3PZ        -0.25788  -0.37330  -0.19708   0.34136
  25 4   H  1S         -0.13434  -0.69161  -0.55272  -0.95734
  26        2S         -0.26448  -0.35033  -0.23417  -0.40559
  27        3PX        -0.05114  -0.69159  -0.45339  -0.84921
  28        3PY        -0.41157  -0.39929  -0.32568  -0.45339
  29        3PZ         0.25788  -0.37330  -0.19708  -0.34136
     Beta Molecular Orbital Coefficients:
                           1         2         3         4         5
                        (A1)--O   (A1)--O   (E)--O    (E)--O    (A1)--V
     Eigenvalues --    -9.91933  -0.58945  -0.34978  -0.34978  -0.11692
   1 1   C  1S          0.98834  -0.24517   0.00000  -0.00000  -0.08686
   2        2S          0.04791   0.47951   0.00000   0.00000   0.17816
   3        3S         -0.03238   0.14442   0.00000  -0.00000   0.33782
   4        4PX         0.00000   0.00000   0.44008   0.00000   0.00000
   5        4PY        -0.00000   0.00000   0.00000   0.44008  -0.00000
   6        4PZ        -0.00330  -0.09450   0.00000   0.00000   0.50383
   7        5PX         0.00000   0.00000   0.16193   0.00000   0.00000
   8        5PY         0.00000   0.00000   0.00000   0.16193  -0.00000
   9        5PZ         0.00337  -0.00769   0.00000   0.00000   0.49785
  10        6D 0       -0.00230  -0.01233   0.00000  -0.00000  -0.02451
  11        6D+1        0.00000   0.00000  -0.01912   0.00000   0.00000
  12        6D-1        0.00000  -0.00000   0.00000  -0.01912   0.00000
  13        6D+2        0.00000  -0.00000   0.00000  -0.01429  -0.00000
  14        6D-2        0.00000   0.00000  -0.01429   0.00000   0.00000
  15 2   H  1S         -0.00404   0.20804   0.00000   0.37826  -0.07353
  16        2S          0.00741   0.04599   0.00000   0.17154  -0.06560
  17        3PX         0.00000   0.00000   0.01551   0.00000   0.00000
  18        3PY         0.00251  -0.02132   0.00000  -0.00697   0.00664
  19        3PZ        -0.00120   0.00424   0.00000   0.00827   0.02310
  20 3   H  1S         -0.00404   0.20804   0.32758  -0.18913  -0.07353
  21        2S          0.00741   0.04599   0.14856  -0.08577  -0.06560
  22        3PX         0.00217  -0.01846  -0.00135   0.00974   0.00575
  23        3PY        -0.00125   0.01066   0.00974   0.00989  -0.00332
  24        3PZ        -0.00120   0.00424   0.00716  -0.00413   0.02310
  25 4   H  1S         -0.00404   0.20804  -0.32758  -0.18913  -0.07353
  26        2S          0.00741   0.04599  -0.14856  -0.08577  -0.06560
  27        3PX        -0.00217   0.01846  -0.00135  -0.00974  -0.00575
  28        3PY        -0.00125   0.01066  -0.00974   0.00989  -0.00332
  29        3PZ        -0.00120   0.00424  -0.00716  -0.00413   0.02310
                           6         7         8         9        10
                        (A1)--V   (E)--V    (E)--V    (E)--V    (E)--V
     Eigenvalues --     0.07049   0.12676   0.12676   0.39778   0.39778
   1 1   C  1S         -0.15045   0.00000   0.00000  -0.00000   0.00000
   2        2S          0.29621  -0.00000   0.00000   0.00000   0.00000
   3        3S          2.39575  -0.00000   0.00000  -0.00000   0.00000
   4        4PX         0.00000   0.00000  -0.41559   0.00000  -0.27282
   5        4PY        -0.00000  -0.41559   0.00000  -0.27282   0.00000
   6        4PZ        -0.15057   0.00000   0.00000   0.00000   0.00000
   7        5PX         0.00000   0.00000  -1.17902   0.00000   1.20675
   8        5PY        -0.00000  -1.17902   0.00000   1.20675   0.00000
   9        5PZ        -0.54115   0.00000   0.00000   0.00000   0.00000
  10        6D 0       -0.00096  -0.00000   0.00000   0.00000   0.00000
  11        6D+1        0.00000   0.00000   0.00208   0.00000   0.04449
  12        6D-1        0.00000   0.00208   0.00000   0.04449   0.00000
  13        6D+2        0.00000  -0.01671   0.00000   0.07995   0.00000
  14        6D-2        0.00000   0.00000  -0.01671   0.00000   0.07995
  15 2   H  1S         -0.04489   0.12626   0.00000  -0.83244   0.00000
  16        2S         -1.20785   1.85050   0.00000   0.11350   0.00000
  17        3PX         0.00000   0.00000  -0.01656   0.00000   0.05945
  18        3PY        -0.01331   0.01372   0.00000   0.00476   0.00000
  19        3PZ         0.00308  -0.01034   0.00000   0.01399   0.00000
  20 3   H  1S         -0.04489  -0.06313   0.10935   0.41622  -0.72092
  21        2S         -1.20785  -0.92525   1.60258  -0.05675   0.09830
  22        3PX        -0.01152  -0.01311   0.00615   0.02368   0.01843
  23        3PY         0.00665  -0.00899  -0.01311   0.04577   0.02368
  24        3PZ         0.00308   0.00517  -0.00895  -0.00700   0.01212
  25 4   H  1S         -0.04489  -0.06313  -0.10935   0.41622   0.72092
  26        2S         -1.20785  -0.92525  -1.60258  -0.05675  -0.09830
  27        3PX         0.01152   0.01311   0.00615  -0.02368   0.01843
  28        3PY         0.00665  -0.00899   0.01311   0.04577  -0.02368
  29        3PZ         0.00308   0.00517   0.00895  -0.00700  -0.01212
                          11        12        13        14        15
                        (A1)--V   (A1)--V   (A1)--V   (E)--V    (E)--V
     Eigenvalues --     0.50478   0.56636   0.61767   0.64035   0.64035
   1 1   C  1S          0.15663   0.02832   0.26828  -0.00000   0.00000
   2        2S         -0.93769  -0.76509  -1.69324   0.00000   0.00000
   3        3S          1.48935   2.98221   4.23238  -0.00000   0.00000
   4        4PX         0.00000   0.00000   0.00000   0.00000  -0.93556
   5        4PY         0.00000   0.00000   0.00000   0.93556   0.00000
   6        4PZ        -0.88748   0.16178   0.49228  -0.00000   0.00000
   7        5PX         0.00000   0.00000   0.00000   0.00000   1.66481
   8        5PY        -0.00000  -0.00000  -0.00000  -1.66481   0.00000
   9        5PZ         0.76914  -0.88519  -0.94177   0.00000   0.00000
  10        6D 0        0.03064   0.10722  -0.04771  -0.00000   0.00000
  11        6D+1        0.00000   0.00000   0.00000   0.00000  -0.06367
  12        6D-1        0.00000   0.00000   0.00000   0.06367   0.00000
  13        6D+2        0.00000   0.00000   0.00000   0.11679   0.00000
  14        6D-2        0.00000   0.00000   0.00000   0.00000  -0.11679
  15 2   H  1S          0.01245  -0.72860   0.34238  -0.54741   0.00000
  16        2S         -0.28698  -0.50237  -1.41970   1.83552   0.00000
  17        3PX         0.00000   0.00000   0.00000   0.00000  -0.06375
  18        3PY        -0.01895  -0.05749   0.11573  -0.14788   0.00000
  19        3PZ        -0.02501  -0.04888  -0.01676   0.06540   0.00000
  20 3   H  1S          0.01245  -0.72860   0.34238   0.27371   0.47407
  21        2S         -0.28698  -0.50237  -1.41970  -0.91776  -1.58961
  22        3PX        -0.01641  -0.04979   0.10023   0.09164   0.09497
  23        3PY         0.00948   0.02874  -0.05787   0.01084  -0.09164
  24        3PZ        -0.02501  -0.04888  -0.01676  -0.03270  -0.05664
  25 4   H  1S          0.01245  -0.72860   0.34238   0.27371  -0.47407
  26        2S         -0.28698  -0.50237  -1.41970  -0.91776   1.58961
  27        3PX         0.01641   0.04979  -0.10023  -0.09164   0.09497
  28        3PY         0.00948   0.02874  -0.05787   0.01084   0.09164
  29        3PZ        -0.02501  -0.04888  -0.01676  -0.03270   0.05664
                          16        17        18        19        20
                        (E)--V    (E)--V    (A2)--V   (A1)--V   (E)--V
     Eigenvalues --     1.10532   1.10532   1.45621   1.50900   1.59741
   1 1   C  1S          0.00000   0.00000   0.00000   0.06076   0.00000
   2        2S         -0.00000   0.00000   0.00000  -0.65212  -0.00000
   3        3S          0.00000   0.00000   0.00000   1.65410   0.00000
   4        4PX         0.00000   0.05240   0.00000   0.00000   0.00000
   5        4PY         0.05240   0.00000   0.00000  -0.00000  -0.05633
   6        4PZ         0.00000   0.00000   0.00000  -0.07971  -0.00000
   7        5PX         0.00000   0.19860   0.00000   0.00000   0.00000
   8        5PY         0.19860   0.00000   0.00000  -0.00000   0.80560
   9        5PZ        -0.00000   0.00000   0.00000  -0.69113  -0.00000
  10        6D 0        0.00000   0.00000   0.00000  -0.45651  -0.00000
  11        6D+1        0.00000   0.33153   0.00000   0.00000   0.00000
  12        6D-1        0.33153   0.00000   0.00000   0.00000   0.00228
  13        6D+2       -0.23278   0.00000   0.00000   0.00000  -0.19947
  14        6D-2        0.00000  -0.23278  -0.00000   0.00000   0.00000
  15 2   H  1S         -0.11397   0.00000   0.00000  -0.29216  -0.35047
  16        2S         -0.04341   0.00000   0.00000  -0.35385  -0.21341
  17        3PX         0.00000  -0.37100   0.59520   0.00000   0.00000
  18        3PY         0.13713   0.00000   0.00000   0.00725  -0.42075
  19        3PZ         0.45919   0.00000   0.00000   0.48058  -0.44800
  20 3   H  1S          0.05698  -0.09870  -0.00000  -0.29216   0.17524
  21        2S          0.02170  -0.03759   0.00000  -0.35385   0.10670
  22        3PX        -0.22003   0.01010  -0.29760   0.00627  -0.06541
  23        3PY        -0.24396  -0.22003  -0.51546  -0.00362  -0.53405
  24        3PZ        -0.22960   0.39767  -0.00000   0.48058   0.22400
  25 4   H  1S          0.05698   0.09870   0.00000  -0.29216   0.17524
  26        2S          0.02170   0.03759  -0.00000  -0.35385   0.10670
  27        3PX         0.22003   0.01010  -0.29760  -0.00627   0.06541
  28        3PY        -0.24396   0.22003   0.51546  -0.00362  -0.53405
  29        3PZ        -0.22960  -0.39767   0.00000   0.48058   0.22400
                          21        22        23        24        25
                        (E)--V    (E)--V    (E)--V    (A1)--V   (E)--V
     Eigenvalues --     1.59741   1.89150   1.89150   2.12251   2.36790
   1 1   C  1S          0.00000  -0.00000   0.00000  -0.08319  -0.00000
   2        2S          0.00000  -0.00000   0.00000   0.49465   0.00000
   3        3S          0.00000   0.00000   0.00000   0.51981   0.00000
   4        4PX        -0.05633   0.00000   0.54907   0.00000   0.00000
   5        4PY         0.00000   0.54907   0.00000  -0.00000  -0.16138
   6        4PZ         0.00000   0.00000   0.00000  -0.33029  -0.00000
   7        5PX         0.80560   0.00000   0.10615   0.00000   0.00000
   8        5PY         0.00000   0.10615   0.00000   0.00000  -0.44869
   9        5PZ         0.00000  -0.00000   0.00000  -0.41008  -0.00000
  10        6D 0        0.00000   0.00000   0.00000   0.71547  -0.00000
  11        6D+1        0.00228   0.00000   0.45304   0.00000   0.00000
  12        6D-1        0.00000   0.45304   0.00000  -0.00000   0.80280
  13        6D+2        0.00000   0.29999   0.00000   0.00000  -0.66943
  14        6D-2       -0.19947   0.00000   0.29999   0.00000   0.00000
  15 2   H  1S          0.00000   0.06731   0.00000  -0.14067   0.13689
  16        2S          0.00000  -0.39582   0.00000  -0.22537   0.28208
  17        3PX        -0.57182   0.00000  -0.25258   0.00000   0.00000
  18        3PY         0.00000   0.49603   0.00000   0.46439  -0.24959
  19        3PZ         0.00000  -0.49906   0.00000   0.36935  -0.32169
  20 3   H  1S         -0.30352  -0.03365   0.05829  -0.14067  -0.06844
  21        2S         -0.18482   0.19791  -0.34279  -0.22537  -0.14104
  22        3PX        -0.45852  -0.32416   0.30888   0.40217   0.38631
  23        3PY        -0.06541  -0.06543  -0.32416  -0.23219   0.41953
  24        3PZ        -0.38798   0.24953  -0.43220   0.36935   0.16085
  25 4   H  1S          0.30352  -0.03365  -0.05829  -0.14067  -0.06844
  26        2S          0.18482   0.19791   0.34279  -0.22537  -0.14104
  27        3PX        -0.45852   0.32416   0.30888  -0.40217  -0.38631
  28        3PY         0.06541  -0.06543   0.32416  -0.23219   0.41953
  29        3PZ         0.38798   0.24953   0.43220   0.36935   0.16085
                          26        27        28        29
                        (E)--V    (A1)--V   (E)--V    (E)--V
     Eigenvalues --     2.36790   2.61989   2.82892   2.82892
   1 1   C  1S          0.00000  -0.24710   0.00000   0.00000
   2        2S          0.00000   1.49411   0.00000   0.00000
   3        3S          0.00000   1.08134  -0.00000   0.00000
   4        4PX        -0.16138   0.00000   0.00000  -1.09892
   5        4PY         0.00000  -0.00000  -1.09892   0.00000
   6        4PZ         0.00000  -0.55456   0.00000   0.00000
   7        5PX        -0.44869   0.00000   0.00000  -0.65836
   8        5PY         0.00000   0.00000  -0.65836   0.00000
   9        5PZ         0.00000  -0.22660   0.00000   0.00000
  10        6D 0        0.00000  -0.81532   0.00000   0.00000
  11        6D+1        0.80280   0.00000   0.00000   0.76672
  12        6D-1        0.00000  -0.00000   0.76672   0.00000
  13        6D+2        0.00000   0.00000   1.13497   0.00000
  14        6D-2       -0.66943   0.00000   0.00000   1.13497
  15 2   H  1S          0.00000  -0.68958   1.10692   0.00000
  16        2S          0.00000  -0.34776   0.46594   0.00000
  17        3PX         0.64257   0.00000   0.00000  -0.05917
  18        3PY         0.00000   0.77798  -1.10434   0.00000
  19        3PZ         0.00000  -0.37911   0.38153   0.00000
  20 3   H  1S          0.11855  -0.68958  -0.55346   0.95862
  21        2S          0.24429  -0.34776  -0.23297   0.40352
  22        3PX        -0.02655   0.67375   0.45257  -0.84305
  23        3PY         0.38631  -0.38899  -0.32046   0.45257
  24        3PZ        -0.27859  -0.37911  -0.19076   0.33041
  25 4   H  1S         -0.11855  -0.68958  -0.55346  -0.95862
  26        2S         -0.24429  -0.34776  -0.23297  -0.40352
  27        3PX        -0.02655  -0.67375  -0.45257  -0.84305
  28        3PY        -0.38631  -0.38899  -0.32046  -0.45257
  29        3PZ         0.27859  -0.37911  -0.19076  -0.33041
     Alpha Density Matrix:
                           1         2         3         4         5
   1 1   C  1S          1.04828
   2        2S         -0.09760   0.30125
   3        3S         -0.10153   0.14063   0.09959
   4        4PX         0.00000  -0.00000  -0.00000   0.20960
   5        4PY         0.00000  -0.00000  -0.00000  -0.00000   0.20960
   6        4PZ        -0.03327   0.07775   0.13640  -0.00000  -0.00000
   7        5PX         0.00000  -0.00000  -0.00000   0.08371  -0.00000
   8        5PY         0.00000  -0.00000  -0.00000  -0.00000   0.08371
   9        5PZ        -0.03129   0.08182   0.11120  -0.00000  -0.00000
  10        6D 0       -0.00349   0.00403   0.00226  -0.00000  -0.00000
  11        6D+1        0.00000  -0.00000  -0.00000  -0.00479   0.00000
  12        6D-1        0.00000  -0.00000  -0.00000   0.00000  -0.00479
  13        6D+2       -0.00000   0.00000   0.00000  -0.00000  -0.00654
  14        6D-2       -0.00000   0.00000   0.00000  -0.00654   0.00000
  15 2   H  1S         -0.04664   0.08269   0.01463   0.00000   0.16656
  16        2S          0.00368   0.00708  -0.00713   0.00000   0.06770
  17        3PX         0.00000  -0.00000  -0.00000   0.00660  -0.00000
  18        3PY         0.00751  -0.00962  -0.00264  -0.00000  -0.00386
  19        3PZ        -0.00328   0.00464   0.00476  -0.00000   0.00194
  20 3   H  1S         -0.04664   0.08269   0.01463   0.14425  -0.08328
  21        2S          0.00368   0.00708  -0.00713   0.05863  -0.03385
  22        3PX         0.00650  -0.00833  -0.00228  -0.00124   0.00453
  23        3PY        -0.00375   0.00481   0.00132   0.00453   0.00399
  24        3PZ        -0.00328   0.00464   0.00476   0.00168  -0.00097
  25 4   H  1S         -0.04664   0.08269   0.01463  -0.14425  -0.08328
  26        2S          0.00368   0.00708  -0.00713  -0.05863  -0.03385
  27        3PX        -0.00650   0.00833   0.00228  -0.00124  -0.00453
  28        3PY        -0.00375   0.00481   0.00132  -0.00453   0.00399
  29        3PZ        -0.00328   0.00464   0.00476  -0.00168  -0.00097
                           6         7         8         9        10
   6        4PZ         0.34202
   7        5PX        -0.00000   0.03343
   8        5PY        -0.00000  -0.00000   0.03343
   9        5PZ         0.25608  -0.00000  -0.00000   0.19371
  10        6D 0        0.00188  -0.00000  -0.00000   0.00171   0.00006
  11        6D+1        0.00000  -0.00191   0.00000   0.00000   0.00000
  12        6D-1        0.00000   0.00000  -0.00191   0.00000  -0.00000
  13        6D+2        0.00000  -0.00000  -0.00261   0.00000   0.00000
  14        6D-2        0.00000  -0.00261   0.00000   0.00000   0.00000
  15 2   H  1S         -0.05945   0.00000   0.06652  -0.03653   0.00094
  16        2S         -0.03086   0.00000   0.02704  -0.02193  -0.00000
  17        3PX         0.00000   0.00264  -0.00000   0.00000  -0.00000
  18        3PY         0.00425  -0.00000  -0.00154   0.00230  -0.00012
  19        3PZ         0.00927  -0.00000   0.00078   0.00715   0.00009
  20 3   H  1S         -0.05945   0.05761  -0.03326  -0.03653   0.00094
  21        2S         -0.03086   0.02342  -0.01352  -0.02193  -0.00000
  22        3PX         0.00368  -0.00050   0.00181   0.00200  -0.00010
  23        3PY        -0.00212   0.00181   0.00159  -0.00115   0.00006
  24        3PZ         0.00927   0.00067  -0.00039   0.00715   0.00009
  25 4   H  1S         -0.05945  -0.05761  -0.03326  -0.03653   0.00094
  26        2S         -0.03086  -0.02342  -0.01352  -0.02193  -0.00000
  27        3PX        -0.00368  -0.00050  -0.00181  -0.00200   0.00010
  28        3PY        -0.00212  -0.00181   0.00159  -0.00115   0.00006
  29        3PZ         0.00927  -0.00067  -0.00039   0.00715   0.00009
                          11        12        13        14        15
  11        6D+1        0.00011
  12        6D-1       -0.00000   0.00011
  13        6D+2        0.00000   0.00015   0.00020
  14        6D-2        0.00015  -0.00000   0.00000   0.00020
  15 2   H  1S         -0.00000  -0.00381  -0.00520   0.00000   0.17580
  16        2S         -0.00000  -0.00155  -0.00211   0.00000   0.06384
  17        3PX        -0.00015   0.00000  -0.00000  -0.00021  -0.00000
  18        3PY         0.00000   0.00009   0.00012  -0.00000  -0.00749
  19        3PZ        -0.00000  -0.00004  -0.00006   0.00000   0.00082
  20 3   H  1S         -0.00330   0.00190   0.00260  -0.00450  -0.02273
  21        2S         -0.00134   0.00077   0.00106  -0.00183  -0.01686
  22        3PX         0.00003  -0.00010  -0.00014   0.00004  -0.00024
  23        3PY        -0.00010  -0.00009  -0.00012  -0.00014   0.00538
  24        3PZ        -0.00004   0.00002   0.00003  -0.00005  -0.00149
  25 4   H  1S          0.00330   0.00190   0.00260   0.00450  -0.02273
  26        2S          0.00134   0.00077   0.00106   0.00183  -0.01686
  27        3PX         0.00003   0.00010   0.00014   0.00004   0.00024
  28        3PY         0.00010  -0.00009  -0.00012   0.00014   0.00538
  29        3PZ         0.00004   0.00002   0.00003   0.00005  -0.00149
                          16        17        18        19        20
  16        2S          0.02538
  17        3PX        -0.00000   0.00021
  18        3PY        -0.00213   0.00000   0.00054
  19        3PZ        -0.00009  -0.00000  -0.00002   0.00029
  20 3   H  1S         -0.01686   0.00454  -0.00290  -0.00149   0.17580
  21        2S         -0.00742   0.00185  -0.00026  -0.00103   0.06384
  22        3PX         0.00070  -0.00004   0.00032   0.00005  -0.00649
  23        3PY         0.00173   0.00014  -0.00031   0.00003   0.00375
  24        3PZ        -0.00103   0.00005   0.00003   0.00027   0.00082
  25 4   H  1S         -0.01686  -0.00454  -0.00290  -0.00149  -0.02273
  26        2S         -0.00742  -0.00185  -0.00026  -0.00103  -0.01686
  27        3PX        -0.00070  -0.00004  -0.00032  -0.00005   0.00478
  28        3PY         0.00173  -0.00014  -0.00031   0.00003  -0.00249
  29        3PZ        -0.00103  -0.00005   0.00003   0.00027  -0.00149
                          21        22        23        24        25
  21        2S          0.02538
  22        3PX        -0.00185   0.00046
  23        3PY         0.00107  -0.00014   0.00029
  24        3PZ        -0.00009  -0.00002   0.00001   0.00029
  25 4   H  1S         -0.01686  -0.00478  -0.00249  -0.00149   0.17580
  26        2S         -0.00742  -0.00115  -0.00147  -0.00103   0.06384
  27        3PX         0.00115  -0.00044   0.00009  -0.00000   0.00649
  28        3PY        -0.00147  -0.00009   0.00010  -0.00006   0.00375
  29        3PZ        -0.00103   0.00000  -0.00006   0.00027   0.00082
                          26        27        28        29
  26        2S          0.02538
  27        3PX         0.00185   0.00046
  28        3PY         0.00107   0.00014   0.00029
  29        3PZ        -0.00009   0.00002   0.00001   0.00029
     Beta Density Matrix:
                           1         2         3         4         5
   1 1   C  1S          1.03693
   2        2S         -0.07021   0.23223
   3        3S         -0.06741   0.06770   0.02191
   4        4PX        -0.00000   0.00000   0.00000   0.19367
   5        4PY        -0.00000   0.00000   0.00000  -0.00000   0.19367
   6        4PZ         0.01990  -0.04547  -0.01354  -0.00000  -0.00000
   7        5PX        -0.00000   0.00000   0.00000   0.07126  -0.00000
   8        5PY        -0.00000   0.00000   0.00000  -0.00000   0.07126
   9        5PZ         0.00521  -0.00352  -0.00122  -0.00000  -0.00000
  10        6D 0        0.00075  -0.00602  -0.00171  -0.00000   0.00000
  11        6D+1       -0.00000   0.00000   0.00000  -0.00842   0.00000
  12        6D-1       -0.00000   0.00000   0.00000   0.00000  -0.00842
  13        6D+2        0.00000   0.00000  -0.00000  -0.00000  -0.00629
  14        6D-2        0.00000  -0.00000  -0.00000  -0.00629   0.00000
  15 2   H  1S         -0.05500   0.09956   0.03018   0.00000   0.16646
  16        2S         -0.00395   0.02241   0.00640   0.00000   0.07549
  17        3PX         0.00000  -0.00000  -0.00000   0.00683  -0.00000
  18        3PY         0.00771  -0.01010  -0.00316  -0.00000  -0.00307
  19        3PZ        -0.00222   0.00198   0.00065   0.00000   0.00364
  20 3   H  1S         -0.05500   0.09956   0.03018   0.14416  -0.08323
  21        2S         -0.00395   0.02241   0.00640   0.06538  -0.03775
  22        3PX         0.00667  -0.00875  -0.00274  -0.00060   0.00428
  23        3PY        -0.00385   0.00505   0.00158   0.00428   0.00435
  24        3PZ        -0.00222   0.00198   0.00065   0.00315  -0.00182
  25 4   H  1S         -0.05500   0.09956   0.03018  -0.14416  -0.08323
  26        2S         -0.00395   0.02241   0.00640  -0.06538  -0.03775
  27        3PX        -0.00667   0.00875   0.00274  -0.00060  -0.00428
  28        3PY        -0.00385   0.00505   0.00158  -0.00428   0.00435
  29        3PZ        -0.00222   0.00198   0.00065  -0.00315  -0.00182
                           6         7         8         9        10
   6        4PZ         0.00894
   7        5PX        -0.00000   0.02622
   8        5PY        -0.00000  -0.00000   0.02622
   9        5PZ         0.00072  -0.00000  -0.00000   0.00007
  10        6D 0        0.00117  -0.00000   0.00000   0.00009   0.00016
  11        6D+1        0.00000  -0.00310   0.00000   0.00000   0.00000
  12        6D-1        0.00000   0.00000  -0.00310   0.00000  -0.00000
  13        6D+2        0.00000  -0.00000  -0.00231   0.00000  -0.00000
  14        6D-2        0.00000  -0.00231   0.00000   0.00000   0.00000
  15 2   H  1S         -0.01965   0.00000   0.06125  -0.00161  -0.00256
  16        2S         -0.00437   0.00000   0.02778  -0.00033  -0.00058
  17        3PX         0.00000   0.00251  -0.00000  -0.00000   0.00000
  18        3PY         0.00201  -0.00000  -0.00113   0.00017   0.00026
  19        3PZ        -0.00040   0.00000   0.00134  -0.00004  -0.00005
  20 3   H  1S         -0.01965   0.05305  -0.03063  -0.00161  -0.00256
  21        2S         -0.00437   0.02406  -0.01389  -0.00033  -0.00058
  22        3PX         0.00174  -0.00022   0.00158   0.00015   0.00022
  23        3PY        -0.00100   0.00158   0.00160  -0.00009  -0.00013
  24        3PZ        -0.00040   0.00116  -0.00067  -0.00004  -0.00005
  25 4   H  1S         -0.01965  -0.05305  -0.03063  -0.00161  -0.00256
  26        2S         -0.00437  -0.02406  -0.01389  -0.00033  -0.00058
  27        3PX        -0.00174  -0.00022  -0.00158  -0.00015  -0.00022
  28        3PY        -0.00100  -0.00158   0.00160  -0.00009  -0.00013
  29        3PZ        -0.00040  -0.00116  -0.00067  -0.00004  -0.00005
                          11        12        13        14        15
  11        6D+1        0.00037
  12        6D-1       -0.00000   0.00037
  13        6D+2        0.00000   0.00027   0.00020
  14        6D-2        0.00027  -0.00000  -0.00000   0.00020
  15 2   H  1S         -0.00000  -0.00723  -0.00541   0.00000   0.18638
  16        2S         -0.00000  -0.00328  -0.00245   0.00000   0.07442
  17        3PX        -0.00030   0.00000  -0.00000  -0.00022  -0.00000
  18        3PY         0.00000   0.00013   0.00010   0.00000  -0.00708
  19        3PZ        -0.00000  -0.00016  -0.00012   0.00000   0.00401
  20 3   H  1S         -0.00626   0.00362   0.00270  -0.00468  -0.02824
  21        2S         -0.00284   0.00164   0.00123  -0.00212  -0.02291
  22        3PX         0.00003  -0.00019  -0.00014   0.00002  -0.00017
  23        3PY        -0.00019  -0.00019  -0.00014  -0.00014   0.00596
  24        3PZ        -0.00014   0.00008   0.00006  -0.00010  -0.00068
  25 4   H  1S          0.00626   0.00362   0.00270   0.00468  -0.02824
  26        2S          0.00284   0.00164   0.00123   0.00212  -0.02291
  27        3PX         0.00003   0.00019   0.00014   0.00002   0.00017
  28        3PY         0.00019  -0.00019  -0.00014   0.00014   0.00596
  29        3PZ         0.00014   0.00008   0.00006   0.00010  -0.00068
                          16        17        18        19        20
  16        2S          0.03160
  17        3PX        -0.00000   0.00024
  18        3PY        -0.00216   0.00000   0.00051
  19        3PZ         0.00160  -0.00000  -0.00015   0.00009
  20 3   H  1S         -0.02291   0.00508  -0.00313  -0.00068   0.18638
  21        2S         -0.01254   0.00230  -0.00036  -0.00052   0.07442
  22        3PX         0.00084  -0.00002   0.00033  -0.00000  -0.00613
  23        3PY         0.00218   0.00015  -0.00030   0.00013   0.00354
  24        3PZ        -0.00052   0.00011  -0.00006  -0.00001   0.00401
  25 4   H  1S         -0.02291  -0.00508  -0.00313  -0.00068  -0.02824
  26        2S         -0.01254  -0.00230  -0.00036  -0.00052  -0.02291
  27        3PX        -0.00084  -0.00002  -0.00033   0.00000   0.00525
  28        3PY         0.00218  -0.00015  -0.00030   0.00013  -0.00284
  29        3PZ        -0.00052  -0.00011  -0.00006  -0.00001  -0.00068
                          21        22        23        24        25
  21        2S          0.03160
  22        3PX        -0.00187   0.00044
  23        3PY         0.00108  -0.00012   0.00031
  24        3PZ         0.00160  -0.00013   0.00008   0.00009
  25 4   H  1S         -0.02291  -0.00525  -0.00284  -0.00068   0.18638
  26        2S         -0.01254  -0.00147  -0.00181  -0.00052   0.07442
  27        3PX         0.00147  -0.00044   0.00009   0.00011   0.00613
  28        3PY        -0.00181  -0.00009   0.00012  -0.00006   0.00354
  29        3PZ        -0.00052  -0.00011  -0.00006  -0.00001   0.00401
                          26        27        28        29
  26        2S          0.03160
  27        3PX         0.00187   0.00044
  28        3PY         0.00108   0.00012   0.00031
  29        3PZ         0.00160   0.00013   0.00008   0.00009
    Full Mulliken population analysis:
                           1         2         3         4         5
   1 1   C  1S          2.08521
   2        2S         -0.05463   0.53348
   3        3S         -0.02564   0.16635   0.12149
   4        4PX         0.00000   0.00000   0.00000   0.40327
   5        4PY         0.00000   0.00000   0.00000   0.00000   0.40327
   6        4PZ         0.00000   0.00000   0.00000   0.00000   0.00000
   7        5PX         0.00000   0.00000   0.00000   0.08243   0.00000
   8        5PY         0.00000   0.00000   0.00000   0.00000   0.08243
   9        5PZ         0.00000   0.00000   0.00000   0.00000   0.00000
  10        6D 0        0.00000   0.00000  -0.00000   0.00000   0.00000
[...]
  21        2S          0.02817
  22        3PX        -0.00231   0.00046
  23        3PY         0.00133  -0.00015   0.00029
  24        3PZ         0.00000  -0.00000   0.00000   0.00000
  25 4   H  1S         -0.02227  -0.00413  -0.00308  -0.00000   0.18830
  26        2S         -0.01121  -0.00097  -0.00175  -0.00000   0.07085
  27        3PX         0.00097  -0.00042   0.00004   0.00000   0.00730
  28        3PY        -0.00175  -0.00004   0.00005  -0.00000   0.00421
  29        3PZ        -0.00000  -0.00000  -0.00000  -0.00000   0.00000
                          26        27        28        29
  26        2S          0.02817
  27        3PX         0.00231   0.00046
  28        3PY         0.00133   0.00015   0.00029
  29        3PZ         0.00000   0.00000   0.00000   0.00000
    Full Mulliken population analysis:
                           1         2         3         4         5
   1 1   C  1S          2.08325
   2        2S         -0.05251   0.51383
   3        3S         -0.02481   0.15764   0.08165
   4        4PX         0.00000   0.00000   0.00000   0.39377
   5        4PY         0.00000   0.00000   0.00000   0.00000   0.39377
   6        4PZ         0.00000   0.00000   0.00000   0.00000   0.00000
   7        5PX         0.00000   0.00000   0.00000   0.07745   0.00000
   8        5PY         0.00000   0.00000   0.00000   0.00000   0.07745
   9        5PZ         0.00000   0.00000   0.00000   0.00000   0.00000
  10        6D 0        0.00000   0.00000   0.00000   0.00000   0.00000
  11        6D+1       -0.00000  -0.00000  -0.00000   0.00000   0.00000
  12        6D-1       -0.00000  -0.00000  -0.00000   0.00000   0.00000
  13        6D+2        0.00000   0.00000   0.00000   0.00000   0.00000
  14        6D-2        0.00000   0.00000   0.00000   0.00000   0.00000
  15 2   H  1S         -0.00532   0.07097   0.03466  -0.00000   0.12893
  16        2S         -0.00024   0.01760   0.00930  -0.00000   0.02785
  17        3PX         0.00000  -0.00000  -0.00000   0.00238   0.00000
  18        3PY        -0.00133   0.00729   0.00154   0.00000   0.00379
  19        3PZ        -0.00000   0.00000   0.00000   0.00000   0.00000
  20 3   H  1S         -0.00532   0.07097   0.03466   0.09670   0.03223
  21        2S         -0.00024   0.01760   0.00930   0.02089   0.00696
  22        3PX        -0.00099   0.00547   0.00116   0.00102   0.00242
  23        3PY        -0.00033   0.00182   0.00039   0.00242   0.00032
  24        3PZ        -0.00000   0.00000   0.00000   0.00000   0.00000
  25 4   H  1S         -0.00532   0.07097   0.03466   0.09670   0.03223
  26        2S         -0.00024   0.01760   0.00930   0.02089   0.00696
  27        3PX        -0.00099   0.00547   0.00116   0.00102   0.00242
  28        3PY        -0.00033   0.00182   0.00039   0.00242   0.00032
  29        3PZ        -0.00000   0.00000   0.00000   0.00000   0.00000
                           6         7         8         9        10
   6        4PZ         0.37450
   7        5PX         0.00000   0.05400
   8        5PY         0.00000   0.00000   0.05400
   9        5PZ         0.16670   0.00000   0.00000   0.26228
  10        6D 0        0.00000   0.00000   0.00000   0.00000   0.00038
  11        6D+1        0.00000   0.00000   0.00000   0.00000   0.00000
  12        6D-1        0.00000   0.00000   0.00000   0.00000   0.00000
  13        6D+2        0.00000   0.00000   0.00000   0.00000   0.00000
  14        6D-2        0.00000   0.00000   0.00000   0.00000   0.00000
  15 2   H  1S          0.00000  -0.00000   0.06916   0.00000   0.00040
  16        2S          0.00000  -0.00000   0.02616   0.00000   0.00002
  17        3PX         0.00000   0.00116   0.00000   0.00000  -0.00000
  18        3PY         0.00000   0.00000   0.00010   0.00000   0.00003
  19        3PZ         0.00227   0.00000   0.00000   0.00252  -0.00000
  20 3   H  1S          0.00000   0.05187   0.01729   0.00000   0.00040
  21        2S          0.00000   0.01962   0.00654   0.00000   0.00002
  22        3PX         0.00000  -0.00007   0.00043   0.00000   0.00002
  23        3PY         0.00000   0.00043   0.00047   0.00000   0.00001
  24        3PZ         0.00227   0.00000   0.00000   0.00252  -0.00000
  25 4   H  1S          0.00000   0.05187   0.01729   0.00000   0.00040
  26        2S          0.00000   0.01962   0.00654   0.00000   0.00002
  27        3PX         0.00000  -0.00007   0.00043   0.00000   0.00002
  28        3PY         0.00000   0.00043   0.00047   0.00000   0.00001
  29        3PZ         0.00227   0.00000   0.00000   0.00252  -0.00000
                          11        12        13        14        15
  11        6D+1        0.00000
  12        6D-1       -0.00000   0.00000
  13        6D+2        0.00000   0.00000   0.00048
  14        6D-2       -0.00000   0.00000   0.00000   0.00048
  15 2   H  1S         -0.00000   0.00000   0.00300  -0.00000   0.35569
  16        2S         -0.00000   0.00000   0.00020  -0.00000   0.08626
  17        3PX         0.00000  -0.00000  -0.00000  -0.00014   0.00000
  18        3PY        -0.00000   0.00000   0.00008  -0.00000   0.00000
  19        3PZ        -0.00000  -0.00000   0.00000  -0.00000   0.00000
  20 3   H  1S          0.00000   0.00000   0.00075   0.00225  -0.00257
  21        2S          0.00000   0.00000   0.00005   0.00015  -0.00841
  22        3PX         0.00000   0.00000  -0.00001   0.00004  -0.00002
  23        3PY         0.00000   0.00000  -0.00007  -0.00001   0.00037
  24        3PZ        -0.00000  -0.00000   0.00000   0.00000  -0.00000
  25 4   H  1S          0.00000   0.00000   0.00075   0.00225  -0.00257
  26        2S          0.00000   0.00000   0.00005   0.00015  -0.00841
  27        3PX         0.00000   0.00000  -0.00001   0.00004  -0.00002
  28        3PY         0.00000   0.00000  -0.00007  -0.00001   0.00037
  29        3PZ        -0.00000  -0.00000   0.00000   0.00000  -0.00000
                          16        17        18        19        20
  16        2S          0.04815
  17        3PX         0.00000   0.00036
  18        3PY         0.00000   0.00000   0.00108
  19        3PZ         0.00000   0.00000   0.00000   0.00034
  20 3   H  1S         -0.00841   0.00019   0.00015  -0.00000   0.35569
  21        2S         -0.00923   0.00021  -0.00003  -0.00000   0.08626
  22        3PX        -0.00012   0.00000   0.00001  -0.00000   0.00000
  23        3PY         0.00030   0.00001   0.00002   0.00000   0.00000
  24        3PZ        -0.00000  -0.00000  -0.00000   0.00000   0.00000
  25 4   H  1S         -0.00841   0.00019   0.00015  -0.00000  -0.00257
  26        2S         -0.00923   0.00021  -0.00003  -0.00000  -0.00841
  27        3PX        -0.00012   0.00000   0.00001  -0.00000   0.00035
  28        3PY         0.00030   0.00001   0.00002   0.00000   0.00000
  29        3PZ        -0.00000  -0.00000  -0.00000   0.00000  -0.00000
                          21        22        23        24        25
  21        2S          0.04815
  22        3PX         0.00000   0.00090
  23        3PY         0.00000   0.00000   0.00054
  24        3PZ         0.00000  -0.00000  -0.00000   0.00034
  25 4   H  1S         -0.00841   0.00035   0.00000  -0.00000   0.35569
  26        2S         -0.00923   0.00018   0.00000  -0.00000   0.08626
  27        3PX         0.00018   0.00004   0.00000  -0.00000   0.00000
  28        3PY         0.00000  -0.00000   0.00000   0.00000   0.00000
  29        3PZ        -0.00000   0.00000   0.00000   0.00000   0.00000
                          26        27        28        29
  26        2S          0.04815
  27        3PX         0.00000   0.00090
  28        3PY         0.00000  -0.00000   0.00054
  29        3PZ         0.00000   0.00000  -0.00000   0.00034
     Gross orbital populations:
                         Total     Alpha     Beta      Spin
   1 1   C  1S          1.98528   0.99263   0.99265  -0.00003
   2        2S          0.90654   0.47031   0.43623   0.03408
   3        3S          0.35101   0.19804   0.15296   0.04508
   4        4PX         0.71566   0.36776   0.34789   0.01987
   5        4PY         0.71566   0.36776   0.34789   0.01987
   6        4PZ         0.54802   0.54802   0.00000   0.54802
   7        5PX         0.27632   0.14827   0.12806   0.02021
   8        5PY         0.27632   0.14827   0.12806   0.02021
   9        5PZ         0.43655   0.43655   0.00000   0.43655
  10        6D 0        0.00172  -0.00049   0.00220  -0.00269
  11        6D+1        0.00000   0.00000   0.00000  -0.00000
  12        6D-1        0.00000   0.00000   0.00000  -0.00000
  13        6D+2        0.00519   0.00260   0.00259   0.00001
  14        6D-2        0.00519   0.00260   0.00259   0.00001
  15 2   H  1S          0.72249   0.34737   0.37511  -0.02774
  16        2S          0.18038   0.07801   0.10238  -0.02437
  17        3PX         0.00460   0.00220   0.00240  -0.00021
  18        3PY         0.01290   0.00651   0.00640   0.00011
  19        3PZ         0.00514   0.00514   0.00000   0.00514
  20 3   H  1S          0.72249   0.34737   0.37511  -0.02774
  21        2S          0.18038   0.07801   0.10238  -0.02437
  22        3PX         0.01083   0.00543   0.00540   0.00003
  23        3PY         0.00668   0.00327   0.00340  -0.00013
  24        3PZ         0.00514   0.00514   0.00000   0.00514
  25 4   H  1S          0.72249   0.34737   0.37511  -0.02774
  26        2S          0.18038   0.07801   0.10238  -0.02437
  27        3PX         0.01083   0.00543   0.00540   0.00003
  28        3PY         0.00668   0.00327   0.00340  -0.00013
  29        3PZ         0.00514   0.00514   0.00000   0.00514
          Condensed to atoms (all electrons):
               1          2          3          4
     1  C    5.016236   0.402404   0.402404   0.402404
     2  H    0.402404   0.578143  -0.027515  -0.027515
     3  H    0.402404  -0.027515   0.578143  -0.027515
     4  H    0.402404  -0.027515  -0.027515   0.578143
          Atomic-Atomic Spin Densities.
               1          2          3          4
     1  C    1.138531   0.000882   0.000882   0.000882
     2  H    0.000882  -0.050378   0.001219   0.001219
     3  H    0.000882   0.001219  -0.050378   0.001219
     4  H    0.000882   0.001219   0.001219  -0.050378
 Mulliken charges and spin densities:
               1          2
     1  C   -0.223448   1.141176
     2  H    0.074483  -0.047059
     3  H    0.074483  -0.047059
     4  H    0.074483  -0.047059
 Sum of Mulliken charges =  -0.00000   1.00000
 Mulliken charges and spin densities with hydrogens summed into heavy atoms:
               1          2
     1  C   -0.000000   1.000000
 Electronic spatial extent (au):  <R**2>=             30.0342
 Charge=             -0.0000 electrons
 Dipole moment (field-independent basis, Debye):
    X=              0.0000    Y=             -0.0000    Z=             -0.0004  Tot=              0.0004
 Quadrupole moment (field-independent basis, Debye-Ang):
   XX=             -7.1308   YY=             -7.1308   ZZ=             -8.7354
   XY=              0.0000   XZ=             -0.0000   YZ=              0.0000
 Traceless Quadrupole moment (field-independent basis, Debye-Ang):
   XX=              0.5349   YY=              0.5349   ZZ=             -1.0697
   XY=              0.0000   XZ=             -0.0000   YZ=              0.0000
 Octapole moment (field-independent basis, Debye-Ang**2):
  XXX=             -0.0000  YYY=              0.8126  ZZZ=             -0.0006  XYY=              0.0000
  XXY=             -0.8126  XXZ=             -0.0004  XZZ=              0.0000  YZZ=             -0.0000
  YYZ=             -0.0004  XYZ=              0.0000
 Hexadecapole moment (field-independent basis, Debye-Ang**3):
 XXXX=            -14.5805 YYYY=            -14.5805 ZZZZ=             -9.4685 XXXY=              0.0000
 XXXZ=             -0.0000 YYYX=              0.0000 YYYZ=             -0.0002 ZZZX=             -0.0000
 ZZZY=              0.0000 XXYY=             -4.8602 XXZZ=             -4.3712 YYZZ=             -4.3712
 XXYZ=              0.0002 YYXZ=             -0.0000 ZZXY=              0.0000
 N-N= 9.502189138084D+00 E-N=-1.104909435253D+02  KE= 3.920721275350D+01
 Symmetry A'   KE= 3.729756981875D+01
 Symmetry A"   KE= 1.909642934755D+00
 Orbital energies and kinetic energies (alpha):
                                 1                 2
   1         (A1)--O          -9.930271         15.733477
   2         (A1)--O          -0.606686          1.423503
   3         (E)--O           -0.370580          0.964447
   4         (E)--O           -0.370580          0.964447
   5         (A1)--O          -0.194275          1.132848
   6         (A1)--V           0.056849          0.866757
   7         (E)--V            0.120469          0.756622
   8         (E)--V            0.120469          0.756622
   9         (E)--V            0.406783          1.146287
  10         (E)--V            0.406783          1.146287
  11         (A1)--V           0.423665          1.264851
  12         (A1)--V           0.434086          1.910622
  13         (A1)--V           0.584937          2.503396
  14         (E)--V            0.631157          2.222214
  15         (E)--V            0.631157          2.222214
  16         (E)--V            1.129930          2.017102
  17         (E)--V            1.129930          2.017102
  18         (A2)--V           1.401677          2.125598
  19         (E)--V            1.525567          2.390750
  20         (E)--V            1.525567          2.390750
  21         (A1)--V           1.650536          2.410533
  22         (A1)--V           1.731513          2.935899
  23         (E)--V            2.118312          3.199102
  24         (E)--V            2.118312          3.199102
  25         (E)--V            2.128922          3.315859
  26         (E)--V            2.128922          3.315859
  27         (A1)--V           2.722485          4.682725
  28         (E)--V            2.800222          4.571143
  29         (E)--V            2.800222          4.571143
 Orbital energies and kinetic energies (beta):
                                 1                 2
   1         (A1)--O          -9.916517         15.748177
   2         (A1)--O          -0.573639          1.349922
   3         (E)--O           -0.360819          0.945196
   4         (E)--O           -0.360819          0.945196
   5         (A1)--V          -0.095956          0.988151
   6         (A1)--V           0.069522          0.856587
   7         (E)--V            0.125249          0.751785
   8         (E)--V            0.125249          0.751785
   9         (E)--V            0.414610          1.139296
  10         (E)--V            0.414610          1.139296
  11         (A1)--V           0.456282          1.251043
  12         (A1)--V           0.517634          2.047812
  13         (A1)--V           0.613489          2.571715
  14         (E)--V            0.639911          2.239931
  15         (E)--V            0.639911          2.239931
  16         (E)--V            1.154846          2.000872
  17         (E)--V            1.154846          2.000872
  18         (A2)--V           1.397073          2.125598
  19         (E)--V            1.527830          2.385751
  20         (E)--V            1.527830          2.385751
  21         (A1)--V           1.663547          2.418039
  22         (A1)--V           1.818071          2.989956
  23         (E)--V            2.132029          3.326228
  24         (E)--V            2.132029          3.326228
  25         (E)--V            2.174296          3.215314
  26         (E)--V            2.174296          3.215314
  27         (A1)--V           2.743038          4.643208
  28         (E)--V            2.810754          4.579152
  29         (E)--V            2.810754          4.579152
 Total kinetic energy from orbitals= 3.920721275350D+01
                          Isotropic Fermi Contact Couplings
        Atom                 a.u.       MegaHertz       Gauss      10(-4) cm-1
     1  C(13)              0.17318     194.68695      69.46914      64.94058
     2  H(1)              -0.01383     -61.83535     -22.06439     -20.62605
     3  H(1)              -0.01383     -61.83535     -22.06439     -20.62605
     4  H(1)              -0.01383     -61.83535     -22.06439     -20.62605
 --------------------------------------------------------
       Center         ----  Spin Dipole Couplings  ----
                      3XX-RR        3YY-RR        3ZZ-RR
 --------------------------------------------------------
     1   Atom       -0.554086     -0.554086      1.108171
     2   Atom       -0.071474      0.073835     -0.002360
     3   Atom        0.037507     -0.035147     -0.002360
     4   Atom        0.037507     -0.035147     -0.002360
 --------------------------------------------------------
                        XY            XZ            YZ
 --------------------------------------------------------
     1   Atom        0.000000     -0.000000     -0.000000
     2   Atom        0.000000     -0.000000     -0.000016
     3   Atom       -0.062921     -0.000014      0.000008
     4   Atom        0.062921      0.000014      0.000008
 --------------------------------------------------------


 ---------------------------------------------------------------------------------
              Anisotropic Spin Dipole Couplings in Principal Axis System
 ---------------------------------------------------------------------------------

       Atom             a.u.   MegaHertz   Gauss  10(-4) cm-1        Axes

              Baa    -0.5541   -74.353   -26.531   -24.801  0.9936 -0.1129 -0.0000
     1 C(13)  Bbb    -0.5541   -74.353   -26.531   -24.801  0.1129  0.9936 -0.0000
              Bcc     1.1082   148.706    53.062    49.603  0.0000  0.0000  1.0000
 
              Baa    -0.0715   -38.135   -13.608   -12.721  1.0000 -0.0000  0.0000
     2 H(1)   Bbb    -0.0024    -1.259    -0.449    -0.420 -0.0000  0.0002  1.0000
              Bcc     0.0738    39.395    14.057    13.141  0.0000  1.0000 -0.0002
 
              Baa    -0.0715   -38.135   -13.608   -12.721  0.5000  0.8660  0.0000
     3 H(1)   Bbb    -0.0024    -1.259    -0.449    -0.420  0.0002 -0.0001  1.0000
              Bcc     0.0738    39.395    14.057    13.141  0.8660 -0.5000 -0.0002
 
              Baa    -0.0715   -38.135   -13.608   -12.721 -0.5000  0.8660  0.0000
     4 H(1)   Bbb    -0.0024    -1.259    -0.449    -0.420 -0.0002 -0.0001  1.0000
              Bcc     0.0738    39.395    14.057    13.141  0.8660  0.5000  0.0002
 

 ---------------------------------------------------------------------------------

 No NMR shielding tensors so no spin-rotation constants.
 Leave Link  601 at Fri Jan 12 21:06:45 2018, MaxMem=  2097152000 cpu:         1.4
 (Enter /home/chemsoft/gaussian/g09e01/g09/l9999.exe)

 Test job not archived.
 1\1\GINC-LENOX07\FOpt\UBP86\def2SVP/W06\C1H3(2)\MARTIN\12-Jan-2018\0\\
 #P UBP86/def2SVP/W06 DenFit opt (MaxCycle=100) scf=(xqc, MaxConvention
 alCycle=500) int = (ultrafinegrid) gfinput gfoldprint iop(6/7=3) symme
 try=loose pop = full\\Methane DF-BP86/def2-SVP\\0,2\C,0.1575955313,0.1
 575955328,-0.1575955321\H,0.6063180145,0.6063180138,0.7395278037\H,0.6
 063180145,-0.7395278009,-0.6063180174\H,-0.7395278066,0.6063180138,-0.
 6063180109\\Version=ES64L-G09RevE.01\State=2-A1\HF=-39.8030681\S2=0.75
 3483\S2-1=0.\S2A=0.750006\RMSD=2.909e-09\RMSF=5.576e-06\Dipole=0.00009
 12,0.0000912,-0.0000912\Quadrupole=0.,0.,0.,-0.397657,0.397657,0.39765
 7\PG=C03V [C3(C1),3SGV(H1)]\\@


 Standing in the middle of the road is very dangerous;
 you get knocked down by the traffic from both sides.
                                -- Margaret Thatcher
 Job cpu time:       0 days  0 hours  2 minutes 14.3 seconds.
 File lengths (MBytes):  RWF=      5 Int=      0 D2E=      0 Chk=      1 Scr=      1
 Normal termination of Gaussian 09 at Fri Jan 12 21:06:45 2018.
