 Methane DF-BP86/def2-SVP
GAUSSIAN              9 MOL ORBITALS     46 PRIMITIVES        4 NUCLEI
  C    1    (CENTRE  1)  -0.00000000 -0.00000000  0.00011697  CHARGE =  6.0
  H    2    (CENTRE  2)   0.00000000  2.07657943 -0.00023394  CHARGE =  1.0
  H    3    (CENTRE  3)   1.79837054 -1.03828972 -0.00023394  CHARGE =  1.0
  H    4    (CENTRE  4)  -1.79837054 -1.03828972 -0.00023394  CHARGE =  1.0
CENTRE ASSIGNMENTS    1  1  1  1  1  1  1  1  1  1  1  1  1  1  1  1  1  1  1  1
CENTRE ASSIGNMENTS    1  1  1  1  1  2  2  2  2  2  2  2  3  3  3  3  3  3  3  4
CENTRE ASSIGNMENTS    4  4  4  4  4  4
TYPE ASSIGNMENTS      1  1  1  1  1  1  1  2  2  2  3  3  3  4  4  4  2  3  4  5
TYPE ASSIGNMENTS      6  7  8  9 10  1  1  1  1  2  3  4  1  1  1  1  2  3  4  1
TYPE ASSIGNMENTS      1  1  1  2  3  4
EXPONENTS  0.1238402D+04 0.1862900D+03 0.4225118D+02 0.1167656D+02 0.3593051D+01
EXPONENTS  0.4024515D+00 0.1309018D+00 0.9468097D+01 0.2010355D+01 0.5477100D+00
EXPONENTS  0.9468097D+01 0.2010355D+01 0.5477100D+00 0.9468097D+01 0.2010355D+01
EXPONENTS  0.5477100D+00 0.1526861D+00 0.1526861D+00 0.1526861D+00 0.8000000D+00
EXPONENTS  0.8000000D+00 0.8000000D+00 0.8000000D+00 0.8000000D+00 0.8000000D+00
EXPONENTS  0.1301070D+02 0.1962257D+01 0.4445380D+00 0.1219496D+00 0.8000000D+00
EXPONENTS  0.8000000D+00 0.8000000D+00 0.1301070D+02 0.1962257D+01 0.4445380D+00
EXPONENTS  0.1219496D+00 0.8000000D+00 0.8000000D+00 0.8000000D+00 0.1301070D+02
EXPONENTS  0.1962257D+01 0.4445380D+00 0.1219496D+00 0.8000000D+00 0.8000000D+00
EXPONENTS  0.8000000D+00
MO    1     MO 0.0        OCC NO =    1.0000000  ORB. ENERGY =   -9.930271
  0.81087725D+00  0.14586236D+01  0.21263414D+01  0.20824436D+01  0.81898145D+00
  0.18022981D-01 -0.50382300D-02  0.00000000D+00  0.00000000D+00  0.00000000D+00
 -0.13320264D-14 -0.10561217D-14 -0.50528291D-15 -0.19434678D-05 -0.15409143D-05
 -0.73722341D-06  0.00000000D+00 -0.39645767D-15  0.20857904D-06  0.14457485D-02
  0.14457485D-02 -0.28914969D-02  0.00000000D+00  0.00000000D+00 -0.55425572D-15
 -0.75603266D-03 -0.12825637D-02 -0.14601313D-02  0.10889397D-02  0.00000000D+00
  0.33943777D-02 -0.78562155D-06 -0.75603266D-03 -0.12825637D-02 -0.14601313D-02
  0.10889397D-02  0.29396173D-02 -0.16971888D-02 -0.78562155D-06 -0.75603266D-03
 -0.12825637D-02 -0.14601313D-02  0.10889397D-02 -0.29396173D-02 -0.16971888D-02
 -0.78562155D-06
MO    2     MO 0.0        OCC NO =    1.0000000  ORB. ENERGY =   -0.606686
 -0.21418471D+00 -0.38528011D+00 -0.56165073D+00 -0.55005559D+00 -0.21632534D+00
  0.18701578D+00  0.34575037D-01  0.00000000D+00  0.00000000D+00  0.00000000D+00
  0.37853592D-14  0.30012918D-14  0.14359154D-14 -0.42629328D-04 -0.33799449D-04
 -0.16170754D-04  0.00000000D+00 -0.17020333D-14 -0.76451193D-06 -0.30912417D-02
 -0.30912417D-02  0.61824834D-02  0.00000000D+00  0.00000000D+00 -0.17370465D-15
  0.30149094D-01  0.51146115D-01  0.58227161D-01  0.34180267D-02  0.00000000D+00
 -0.22039654D-01  0.18853386D-05  0.30149094D-01  0.51146115D-01  0.58227161D-01
  0.34180267D-02 -0.19086900D-01  0.11019827D-01  0.18853386D-05  0.30149094D-01
  0.51146115D-01  0.58227161D-01  0.34180267D-02  0.19086900D-01  0.11019827D-01
  0.18853386D-05
MO    3     MO 0.0        OCC NO =    1.0000000  ORB. ENERGY =   -0.370580
  0.00000000D+00  0.00000000D+00  0.00000000D+00  0.00000000D+00  0.00000000D+00
  0.00000000D+00  0.00000000D+00  0.60960334D+00  0.48333526D+00  0.23124327D+00
  0.00000000D+00  0.00000000D+00  0.00000000D+00  0.00000000D+00  0.00000000D+00
  0.00000000D+00  0.23930945D-01  0.00000000D+00  0.00000000D+00  0.00000000D+00
  0.00000000D+00  0.00000000D+00 -0.30506832D-01 -0.11034203D-04  0.00000000D+00
  0.00000000D+00  0.00000000D+00  0.00000000D+00  0.00000000D+00  0.13632013D-01
  0.00000000D+00  0.00000000D+00  0.51705958D-01  0.87716033D-01  0.99860088D-01
  0.17737430D-01 -0.46270636D-02  0.10541883D-01  0.17516739D-05 -0.51705958D-01
 -0.87716033D-01 -0.99860088D-01 -0.17737430D-01 -0.46270636D-02 -0.10541883D-01
 -0.17516739D-05
MO    4     MO 0.0        OCC NO =    1.0000000  ORB. ENERGY =   -0.370580
 -0.54967442D-15 -0.98876630D-15 -0.14413963D-14 -0.14116390D-14 -0.55516806D-15
  0.29654781D-14 -0.38626297D-14  0.00000000D+00  0.00000000D+00  0.00000000D+00
  0.60960334D+00  0.48333526D+00  0.23124327D+00  0.58894569D-15  0.46695645D-15
  0.22340712D-15  0.00000000D+00  0.23930945D-01  0.90290070D-17 -0.15253416D-01
  0.15253416D-01  0.10506219D-15  0.00000000D+00  0.00000000D+00 -0.11034203D-04
  0.59704898D-01  0.10128575D+00  0.11530850D+00  0.20481420D-01  0.00000000D+00
 -0.10713422D-01  0.20226588D-05 -0.29852449D-01 -0.50642875D-01 -0.57654248D-01
 -0.10240710D-01  0.10541883D-01  0.75456539D-02 -0.10113294D-05 -0.29852449D-01
 -0.50642875D-01 -0.57654248D-01 -0.10240710D-01 -0.10541883D-01  0.75456539D-02
 -0.10113294D-05
MO    5     MO 0.0        OCC NO =    1.0000000  ORB. ENERGY =   -0.194275
 -0.36420939D-04 -0.65514777D-04 -0.95505638D-04 -0.93533947D-04 -0.36784942D-04
  0.37648973D-04  0.23670911D-04  0.00000000D+00  0.00000000D+00  0.00000000D+00
  0.19971465D-14  0.15834745D-14  0.75758558D-15  0.82417005D+00  0.65345843D+00
  0.31263572D+00  0.00000000D+00 -0.24828721D-15  0.69674738D-01 -0.16261288D-05
 -0.16261288D-05  0.32522576D-05  0.00000000D+00  0.00000000D+00 -0.12626655D-14
 -0.79288267D-05 -0.13450775D-04 -0.15313000D-04 -0.49568712D-05  0.00000000D+00
  0.27604355D-05  0.20019705D-01 -0.79288267D-05 -0.13450775D-04 -0.15313000D-04
 -0.49568712D-05  0.23906073D-05 -0.13802177D-05  0.20019705D-01 -0.79288267D-05
 -0.13450775D-04 -0.15313000D-04 -0.49568712D-05 -0.23906073D-05 -0.13802177D-05
  0.20019705D-01
MO   30     MO 0.0        OCC NO =    1.0000000  ORB. ENERGY =   -9.916517
  0.81129539D+00  0.14593758D+01  0.21274378D+01  0.20835174D+01  0.81940376D+00
  0.17218063D-01 -0.46817752D-02  0.00000000D+00  0.00000000D+00  0.00000000D+00
  0.81573031D-16  0.64676683D-16  0.30943424D-16 -0.24569605D-05 -0.19480465D-05
 -0.93200867D-06  0.00000000D+00 -0.67444120D-15  0.20780527D-06  0.19021417D-02
  0.19021417D-02 -0.38042835D-02  0.00000000D+00  0.00000000D+00  0.14236522D-14
 -0.75063199D-03 -0.12734018D-02 -0.14497010D-02  0.10118954D-02  0.00000000D+00
  0.32669905D-02 -0.78445070D-06 -0.75063199D-03 -0.12734018D-02 -0.14497010D-02
  0.10118954D-02  0.28292967D-02 -0.16334952D-02 -0.78445070D-06 -0.75063199D-03
 -0.12734018D-02 -0.14497010D-02  0.10118954D-02 -0.28292967D-02 -0.16334952D-02
 -0.78445070D-06
MO   31     MO 0.0        OCC NO =    1.0000000  ORB. ENERGY =   -0.573639
 -0.20552521D+00 -0.36970322D+00 -0.53894318D+00 -0.52781683D+00 -0.20757930D+00
  0.17618035D+00  0.26862298D-01  0.00000000D+00  0.00000000D+00  0.00000000D+00
  0.39000551D-14  0.30922307D-14  0.14794235D-14 -0.69969015D-04 -0.55476225D-04
 -0.26541626D-04  0.00000000D+00 -0.15460050D-14 -0.11243487D-05  0.10106270D-01
  0.10106270D-01 -0.20212540D-01  0.00000000D+00  0.00000000D+00 -0.29721484D-15
  0.33279681D-01  0.56456968D-01  0.64273287D-01  0.63587161D-02  0.00000000D+00
 -0.22008469D-01  0.23560933D-05  0.33279681D-01  0.56456968D-01  0.64273287D-01
  0.63587161D-02 -0.19059893D-01  0.11004235D-01  0.23560933D-05  0.33279681D-01
  0.56456968D-01  0.64273287D-01  0.63587161D-02  0.19059893D-01  0.11004235D-01
  0.23560933D-05
MO   32     MO 0.0        OCC NO =    1.0000000  ORB. ENERGY =   -0.360819
 -0.18298747D-15 -0.32916184D-15 -0.47984306D-15 -0.46993682D-15 -0.18481631D-15
  0.28673993D-14 -0.40800304D-14  0.00000000D+00  0.00000000D+00  0.00000000D+00
  0.58531758D+00  0.46407984D+00  0.22203086D+00  0.54050318D-15  0.42854792D-15
  0.20503123D-15  0.00000000D+00  0.20657464D-01  0.13607812D-16 -0.14563947D-01
  0.14563947D-01  0.40479134D-15  0.00000000D+00  0.00000000D+00 -0.19973379D-04
  0.62649843D-01  0.10628167D+00  0.12099609D+00  0.23828936D-01  0.00000000D+00
 -0.11993255D-01  0.53485330D-05 -0.31324921D-01 -0.53140836D-01 -0.60498046D-01
 -0.11914468D-01  0.11849679D-01  0.85309912D-02 -0.26742665D-05 -0.31324921D-01
 -0.53140836D-01 -0.60498046D-01 -0.11914468D-01 -0.11849679D-01  0.85309912D-02
 -0.26742665D-05
MO   33     MO 0.0        OCC NO =    1.0000000  ORB. ENERGY =   -0.360819
  0.00000000D+00  0.00000000D+00  0.00000000D+00  0.00000000D+00  0.00000000D+00
  0.00000000D+00  0.00000000D+00  0.58531758D+00  0.46407984D+00  0.22203086D+00
  0.00000000D+00  0.00000000D+00  0.00000000D+00  0.00000000D+00  0.00000000D+00
  0.00000000D+00  0.20657464D-01  0.00000000D+00  0.00000000D+00  0.00000000D+00
  0.00000000D+00  0.00000000D+00 -0.29127893D-01 -0.19973379D-04  0.00000000D+00
  0.00000000D+00  0.00000000D+00  0.00000000D+00  0.00000000D+00  0.15372406D-01
  0.00000000D+00  0.00000000D+00  0.54256356D-01  0.92042628D-01  0.10478569D+00
  0.20636464D-01 -0.51518393D-02  0.11849679D-01  0.46319655D-05 -0.54256356D-01
 -0.92042628D-01 -0.10478569D+00 -0.20636464D-01 -0.51518393D-02 -0.11849679D-01
 -0.46319655D-05
END DATA
 TOTAL ENERGY =        0.000000000000 THE VIRIAL(-V/T)=   1.00000000
