Methane DF-PBE/def2-SVP                                                 
FOpt      RPBEPBE                                                     def2SVP/W06         
Number of atoms                            I                5
Info1-9                                    I   N=           9
          21          20           0           0           0         111
           2          18         902
Full Title                                 C   N=           2
Methane DF-PBE/def2-SVP 
Route                                      C   N=          13
#P PBEPBE/def2SVP/W06 DenFit opt (MaxCycle=100) scf=(xqc, Ma
xConventionalCycle=500) int = (ultrafinegrid) gfinput gfoldp
rint iop(6/7=3) symmetry=loose      
Charge                                     I                0
Multiplicity                               I                1
Number of electrons                        I               10
Number of alpha electrons                  I                5
Number of beta electrons                   I                5
Number of basis functions                  I               34
Number of independent functions            I               34
Number of point charges in /Mol/           I                0
Number of translation vectors              I                0
Atomic numbers                             I   N=           5
           6           1           1           1           1
Nuclear charges                            R   N=           5
  6.00000000E+00  1.00000000E+00  1.00000000E+00  1.00000000E+00  1.00000000E+00
Current cartesian coordinates              R   N=          15
  0.00000000E+00  0.00000000E+00  0.00000000E+00  1.20672977E+00  1.20672977E+00
  1.20672977E+00 -1.20672977E+00 -1.20672977E+00  1.20672977E+00  1.20672977E+00
 -1.20672977E+00 -1.20672977E+00 -1.20672977E+00  1.20672977E+00 -1.20672977E+00
Number of symbols in /Mol/                 I                0
Redundant internal dimensions              I   N=           4
          14           4           6           4
Redundant internal coordinate indices      I   N=          56
           1           2           0           0           1           3
           0           0           1           4           0           0
           1           5           0           0           2           1
           3           0           2           1           4           0
           2           1           5           0           3           1
           4           0           3           1           5           0
           4           1           5           0           2           1
           4           3           2           1           5           3
           2           1           5           4           3           1
           5           4
Redundant internal coordinates             R   N=          14
  2.09011727E+00  2.09011727E+00  2.09011727E+00  2.09011727E+00  1.91063324E+00
  1.91063324E+00  1.91063324E+00  1.91063324E+00  1.91063324E+00  1.91063324E+00
  2.09439510E+00 -2.09439510E+00  2.09439510E+00 -2.09439510E+00
ZRed-IntVec                                I   N=          14
           0           0           0           0           0           0
           0           0           0           0           0           0
           0           0
ZRed-FPVec                                 R   N=          14
  0.00000000E+00  0.00000000E+00  0.00000000E+00  0.00000000E+00  0.00000000E+00
  0.00000000E+00  0.00000000E+00  0.00000000E+00  0.00000000E+00  0.00000000E+00
  0.00000000E+00  0.00000000E+00  0.00000000E+00  0.00000000E+00
ZRed-Constraint1                           R   N=          14
  2.06335348E+00  2.06335348E+00  2.06335348E+00  2.06335348E+00  1.91063324E+00
  1.91063324E+00  1.91063324E+00  1.91063324E+00  1.91063324E+00  1.91063324E+00
  2.09439510E+00 -2.09439510E+00  2.09439510E+00 -2.09439510E+00
ZRed-Constraint2                           R   N=          14
  0.00000000E+00  0.00000000E+00  0.00000000E+00  0.00000000E+00  0.00000000E+00
  0.00000000E+00  0.00000000E+00  0.00000000E+00  0.00000000E+00  0.00000000E+00
  0.00000000E+00  0.00000000E+00  0.00000000E+00  0.00000000E+00
Force Field                                I                0
Atom Types                                 C   N=           5
                                                            
Int Atom Types                             I   N=           5
           0           0           0           0           0
MM charges                                 R   N=           5
  0.00000000E+00  0.00000000E+00  0.00000000E+00  0.00000000E+00  0.00000000E+00
Integer atomic weights                     I   N=           5
          12           1           1           1           1
Real atomic weights                        R   N=           5
  1.20000000E+01  1.00782504E+00  1.00782504E+00  1.00782504E+00  1.00782504E+00
Atom fragment info                         I   N=           5
           0           0           0           0           0
Atom residue num                           I   N=           5
           0           0           0           0           0
Nuclear spins                              I   N=           5
           0           1           1           1           1
Nuclear ZEff                               R   N=           5
 -3.60000000E+00 -1.00000000E+00 -1.00000000E+00 -1.00000000E+00 -1.00000000E+00
Nuclear ZNuc                               R   N=           5
  6.00000000E+00  1.00000000E+00  1.00000000E+00  1.00000000E+00  1.00000000E+00
Nuclear QMom                               R   N=           5
  0.00000000E+00  0.00000000E+00  0.00000000E+00  0.00000000E+00  0.00000000E+00
Nuclear GFac                               R   N=           5
  0.00000000E+00  2.79284600E+00  2.79284600E+00  2.79284600E+00  2.79284600E+00
MicOpt                                     I   N=           5
          -1          -1          -1          -1          -1
Number of residues                         I                0
Number of secondary structures             I                0
SymInf integers                            I   N=          26
           4           4           1           1           1           1
          -1          -1          -1           1          -1          -1
          -1           1           0           0           0           0
           0           0           0           0           0           0
           0           0
RotTr to input orientation                 R   N=          12
 -2.37945268E-09  1.00000000E+00  2.37945286E-09  2.37945269E-09 -2.37945286E-09
  1.00000000E+00  1.00000000E+00  2.37945268E-09 -2.37945268E-09 -4.44089210E-17
  4.44089210E-17  0.00000000E+00
Number of contracted shells                I               18
Number of primitive shells                 I               32
Pure/Cartesian d shells                    I                0
Pure/Cartesian f shells                    I                0
Highest angular momentum                   I                2
Largest degree of contraction              I                5
Shell types                                I   N=          18
           0           0           0           1           1          -2
           0           0           1           0           0           1
           0           0           1           0           0           1
Number of primitives per shell             I   N=          18
           5           1           1           3           1           1
           3           1           1           3           1           1
           3           1           1           3           1           1
Shell to atom map                          I   N=          18
           1           1           1           1           1           1
           2           2           2           3           3           3
           4           4           4           5           5           5
Primitive exponents                        R   N=          32
  1.23840169E+03  1.86290050E+02  4.22511763E+01  1.16765579E+01  3.59305065E+00
  4.02451474E-01  1.30901827E-01  9.46809706E+00  2.01035451E+00  5.47710047E-01
  1.52686138E-01  8.00000000E-01  1.30107010E+01  1.96225720E+00  4.44537960E-01
  1.21949620E-01  8.00000000E-01  1.30107010E+01  1.96225720E+00  4.44537960E-01
  1.21949620E-01  8.00000000E-01  1.30107010E+01  1.96225720E+00  4.44537960E-01
  1.21949620E-01  8.00000000E-01  1.30107010E+01  1.96225720E+00  4.44537960E-01
  1.21949620E-01  8.00000000E-01
Contraction coefficients                   R   N=          32
  5.51736505E-03  4.10888286E-02  1.82253821E-01  4.68284594E-01  4.45758173E-01
  1.00000000E+00  1.00000000E+00  5.68883320E-02  3.12940593E-01  7.60650165E-01
  1.00000000E+00  1.00000000E+00  3.34854848E-02  2.34721871E-01  8.13770285E-01
  1.00000000E+00  1.00000000E+00  3.34854848E-02  2.34721871E-01  8.13770285E-01
  1.00000000E+00  1.00000000E+00  3.34854848E-02  2.34721871E-01  8.13770285E-01
  1.00000000E+00  1.00000000E+00  3.34854848E-02  2.34721871E-01  8.13770285E-01
  1.00000000E+00  1.00000000E+00
Coordinates of each shell                  R   N=          54
  0.00000000E+00  0.00000000E+00  0.00000000E+00  0.00000000E+00  0.00000000E+00
  0.00000000E+00  0.00000000E+00  0.00000000E+00  0.00000000E+00  0.00000000E+00
  0.00000000E+00  0.00000000E+00  0.00000000E+00  0.00000000E+00  0.00000000E+00
  0.00000000E+00  0.00000000E+00  0.00000000E+00  1.20672977E+00  1.20672977E+00
  1.20672977E+00  1.20672977E+00  1.20672977E+00  1.20672977E+00  1.20672977E+00
  1.20672977E+00  1.20672977E+00 -1.20672977E+00 -1.20672977E+00  1.20672977E+00
 -1.20672977E+00 -1.20672977E+00  1.20672977E+00 -1.20672977E+00 -1.20672977E+00
  1.20672977E+00  1.20672977E+00 -1.20672977E+00 -1.20672977E+00  1.20672977E+00
 -1.20672977E+00 -1.20672977E+00  1.20672977E+00 -1.20672977E+00 -1.20672977E+00
 -1.20672977E+00  1.20672977E+00 -1.20672977E+00 -1.20672977E+00  1.20672977E+00
 -1.20672977E+00 -1.20672977E+00  1.20672977E+00 -1.20672977E+00
Density Number of contracted shells        I               35
Density Number of primitive shells         I               56
Density Pure/Cartesian d shells            I                0
Density Pure/Cartesian f shells            I                0
Density Highest angular momentum           I                4
Density Largest degree of contraction      I                7
Density Shell types                        I   N=          35
           0           0           0           0           0           0
           1           1           1           1          -2          -2
          -2          -3          -4           0           0           0
           1          -2           0           0           0           1
          -2           0           0           0           1          -2
           0           0           0           1          -2
Density Number of primitives per shell     I   N=          35
           7           1           1           1           1           1
           2           1           1           1           2           1
           1           2           1           3           1           1
           2           1           3           1           1           2
           1           3           1           1           2           1
           3           1           1           2           1
Density Shell to atom map                  I   N=          35
           1           1           1           1           1           1
           1           1           1           1           1           1
           1           1           1           2           2           2
           2           2           3           3           3           3
           3           4           4           4           4           4
           5           5           5           5           5
Density Primitive exponents                R   N=          56
  1.86109163E+03  6.42993976E+02  2.35110572E+02  9.07028894E+01  3.67794552E+01
  1.56046273E+01  6.89072940E+00  3.14788500E+00  1.47772870E+00  7.07646600E-01
  3.43012200E-01  1.66945300E-01  1.35472892E+01  5.46694190E+00  2.17517210E+00
  8.58219400E-01  3.37672000E-01  5.92872530E+00  1.98092090E+00  8.05541700E-01
  3.53124400E-01  1.67556260E+00  5.99753600E-01  1.00246000E+00  1.56752927E+01
  3.60635780E+00  1.20800160E+00  4.72679400E-01  2.01810000E-01  2.02813650E+00
  5.35873000E-01  2.21651240E+00  1.56752927E+01  3.60635780E+00  1.20800160E+00
  4.72679400E-01  2.01810000E-01  2.02813650E+00  5.35873000E-01  2.21651240E+00
  1.56752927E+01  3.60635780E+00  1.20800160E+00  4.72679400E-01  2.01810000E-01
  2.02813650E+00  5.35873000E-01  2.21651240E+00  1.56752927E+01  3.60635780E+00
  1.20800160E+00  4.72679400E-01  2.01810000E-01  2.02813650E+00  5.35873000E-01
  2.21651240E+00
Density Contraction coefficients           R   N=          56
  1.63043228E-03  6.16502245E-03  3.43746497E-02  1.30091717E-01  3.38115066E-01
  4.22761457E-01  1.05526830E-01 -1.00000000E+00  1.00000000E+00  1.00000000E+00
  1.00000000E+00  1.00000000E+00 -5.51621037E-01 -4.84824561E-01  1.00000000E+00
  1.00000000E+00  1.00000000E+00 -2.19184826E-01 -8.00220953E-01 -1.00000000E+00
 -1.00000000E+00  4.58454475E-01  6.03229739E-01 -1.00000000E+00  3.26115897E-02
  2.29804684E-01  7.57208324E-01  1.00000000E+00  1.00000000E+00  3.61836199E-01
  7.03930309E-01  1.00000000E+00  3.26115897E-02  2.29804684E-01  7.57208324E-01
  1.00000000E+00  1.00000000E+00  3.61836199E-01  7.03930309E-01  1.00000000E+00
  3.26115897E-02  2.29804684E-01  7.57208324E-01  1.00000000E+00  1.00000000E+00
  3.61836199E-01  7.03930309E-01  1.00000000E+00  3.26115897E-02  2.29804684E-01
  7.57208324E-01  1.00000000E+00  1.00000000E+00  3.61836199E-01  7.03930309E-01
  1.00000000E+00
Density Coordinates of each shell          R   N=         105
  0.00000000E+00  0.00000000E+00  0.00000000E+00  0.00000000E+00  0.00000000E+00
  0.00000000E+00  0.00000000E+00  0.00000000E+00  0.00000000E+00  0.00000000E+00
  0.00000000E+00  0.00000000E+00  0.00000000E+00  0.00000000E+00  0.00000000E+00
  0.00000000E+00  0.00000000E+00  0.00000000E+00  0.00000000E+00  0.00000000E+00
  0.00000000E+00  0.00000000E+00  0.00000000E+00  0.00000000E+00  0.00000000E+00
  0.00000000E+00  0.00000000E+00  0.00000000E+00  0.00000000E+00  0.00000000E+00
  0.00000000E+00  0.00000000E+00  0.00000000E+00  0.00000000E+00  0.00000000E+00
  0.00000000E+00  0.00000000E+00  0.00000000E+00  0.00000000E+00  0.00000000E+00
  0.00000000E+00  0.00000000E+00  0.00000000E+00  0.00000000E+00  0.00000000E+00
  1.20672977E+00  1.20672977E+00  1.20672977E+00  1.20672977E+00  1.20672977E+00
  1.20672977E+00  1.20672977E+00  1.20672977E+00  1.20672977E+00  1.20672977E+00
  1.20672977E+00  1.20672977E+00  1.20672977E+00  1.20672977E+00  1.20672977E+00
 -1.20672977E+00 -1.20672977E+00  1.20672977E+00 -1.20672977E+00 -1.20672977E+00
  1.20672977E+00 -1.20672977E+00 -1.20672977E+00  1.20672977E+00 -1.20672977E+00
 -1.20672977E+00  1.20672977E+00 -1.20672977E+00 -1.20672977E+00  1.20672977E+00
  1.20672977E+00 -1.20672977E+00 -1.20672977E+00  1.20672977E+00 -1.20672977E+00
 -1.20672977E+00  1.20672977E+00 -1.20672977E+00 -1.20672977E+00  1.20672977E+00
 -1.20672977E+00 -1.20672977E+00  1.20672977E+00 -1.20672977E+00 -1.20672977E+00
 -1.20672977E+00  1.20672977E+00 -1.20672977E+00 -1.20672977E+00  1.20672977E+00
 -1.20672977E+00 -1.20672977E+00  1.20672977E+00 -1.20672977E+00 -1.20672977E+00
  1.20672977E+00 -1.20672977E+00 -1.20672977E+00  1.20672977E+00 -1.20672977E+00
Constraint Structure                       R   N=          15
  0.00000000E+00  0.00000000E+00  0.00000000E+00  1.19127768E+00  1.19127768E+00
  1.19127768E+00 -1.19127768E+00 -1.19127768E+00  1.19127768E+00  1.19127768E+00
 -1.19127768E+00 -1.19127768E+00 -1.19127768E+00  1.19127768E+00 -1.19127768E+00
Num ILSW                                   I              100
ILSW                                       I   N=         100
           0           0           0           0           2           0
           0           0           0           0        1009          -1
           5           0           0           0           2           0
           0           0           0           0           1           0
           1           0           0           0           0           0
           0           0      100000           0          -1           0
           0           0           0           0           0           0
           0           0           0           1           0           0
           0           0           1           0           0           0
           0           0           4          41           0           0
           0           0           0           0           0           0
           0           0           0           5           0           0
           0           0           0           0           0           0
           0           0           0           0           0           0
           0           0           0           0           0           0
           0           0           0           0           0           0
           0           0           0           0
Num RLSW                                   I               41
RLSW                                       R   N=          41
  1.00000000E+00  1.00000000E+00  1.00000000E+00  1.00000000E+00  0.00000000E+00
  0.00000000E+00  0.00000000E+00  1.00000000E+00  0.00000000E+00  0.00000000E+00
  0.00000000E+00  0.00000000E+00  1.00000000E+00  0.00000000E+00  0.00000000E+00
  0.00000000E+00  0.00000000E+00  1.00000000E+00  0.00000000E+00  0.00000000E+00
  0.00000000E+00  0.00000000E+00  1.00000000E+00  0.00000000E+00  0.00000000E+00
  0.00000000E+00  0.00000000E+00  1.00000000E+00  0.00000000E+00  0.00000000E+00
  0.00000000E+00  0.00000000E+00  1.00000000E+00  0.00000000E+00  0.00000000E+00
  0.00000000E+00  0.00000000E+00  0.00000000E+00  1.00000000E+00  1.00000000E+00
  0.00000000E+00
ECP-MxAtEC                                 I           250000
ECP-MaxLECP                                I               10
ECP-MaxAtL                                 I          2250000
ECP-MxTECP                                 I         11250000
ECP-LenNCZ                                 I                0
ECP-KFirst                                 I   N=          50
           0           0           0           0           0           0
           0           0           0           0           0           0
           0           0           0           0           0           0
           0           0           0           0           0           0
           0           0           0           0           0           0
           0           0           0           0           0           0
           0           0           0           0           0           0
           0           0           0           0           0           0
           0           0
ECP-KLast                                  I   N=          50
           0           0           0           0           0           0
           0           0           0           0           0           0
           0           0           0           0           0           0
           0           0           0           0           0           0
           0           0           0           0           0           0
           0           0           0           0           0           0
           0           0           0           0           0           0
           0           0           0           0           0           0
           0           0
ECP-LMax                                   I   N=           5
           0           0           0           0           0
ECP-LPSkip                                 I   N=           5
           1           1           1           1           1
ECP-RNFroz                                 R   N=           5
  0.00000000E+00  0.00000000E+00  0.00000000E+00  0.00000000E+00  0.00000000E+00
ECP-NLP                                    I                0
ECP-CLP1                                   R      0.000000000000000E+00
ECP-CLP2                                   R      0.000000000000000E+00
ECP-ZLP                                    R      0.000000000000000E+00
MxBond                                     I                4
NBond                                      I   N=           5
           4           1           1           1           1
IBond                                      I   N=          20
           2           3           4           5           1           0
           0           0           1           0           0           0
           1           0           0           0           1           0
           0           0
RBond                                      R   N=          20
  1.00000000E+00  1.00000000E+00  1.00000000E+00  1.00000000E+00  1.00000000E+00
  0.00000000E+00  0.00000000E+00  0.00000000E+00  1.00000000E+00  0.00000000E+00
  0.00000000E+00  0.00000000E+00  1.00000000E+00  0.00000000E+00  0.00000000E+00
  0.00000000E+00  1.00000000E+00  0.00000000E+00  0.00000000E+00  0.00000000E+00
Virial Ratio                               R      2.015942965073975E+00
SCF Energy                                 R     -4.041517776980253E+01
Total Energy                               R     -4.041517776980253E+01
RMS Force                                  R      3.160277283322173E-05
RMS Density                                R      7.407712484765046E-09
Job Status                                 I                1
Nuclear derivative order                   I                1
External E-field                           R   N=          35
  0.00000000E+00  0.00000000E+00  0.00000000E+00  0.00000000E+00  0.00000000E+00
  0.00000000E+00  0.00000000E+00  0.00000000E+00  0.00000000E+00  0.00000000E+00
  0.00000000E+00  0.00000000E+00  0.00000000E+00  0.00000000E+00  0.00000000E+00
  0.00000000E+00  0.00000000E+00  0.00000000E+00  0.00000000E+00  0.00000000E+00
  0.00000000E+00  0.00000000E+00  0.00000000E+00  0.00000000E+00  0.00000000E+00
  0.00000000E+00  0.00000000E+00  0.00000000E+00  0.00000000E+00  0.00000000E+00
  0.00000000E+00  0.00000000E+00  0.00000000E+00  0.00000000E+00  0.00000000E+00
IOpCl                                      I                0
IROHF                                      I                0
Alpha Orbital Energies                     R   N=          34
 -9.88580212E+00 -6.12615846E-01 -3.40729836E-01 -3.40729836E-01 -3.40729836E-01
  5.31524817E-02  1.18667178E-01  1.18667178E-01  1.18667178E-01  3.88769616E-01
  3.88769616E-01  3.88769616E-01  6.00342153E-01  6.30150461E-01  6.30150461E-01
  6.30150461E-01  7.31105076E-01  1.03680870E+00  1.03680870E+00  1.46140404E+00
  1.46140404E+00  1.46140404E+00  1.68310304E+00  1.68310304E+00  1.68310304E+00
  2.04579953E+00  2.04579953E+00  2.04579953E+00  2.42771296E+00  2.42771296E+00
  2.49013404E+00  2.80920078E+00  2.80920078E+00  2.80920078E+00
Alpha MO coefficients                      R   N=        1156
  9.87370193E-01  5.36294790E-02 -4.14229338E-02  0.00000000E+00  0.00000000E+00
  0.00000000E+00  0.00000000E+00  0.00000000E+00  0.00000000E+00 -1.70465409E-16
  0.00000000E+00  0.00000000E+00  5.03151059E-17  0.00000000E+00 -3.62574392E-03
  7.82991980E-03  1.67652159E-03  1.67652159E-03  1.67652159E-03 -3.62574392E-03
  7.82991980E-03 -1.67652159E-03 -1.67652159E-03  1.67652159E-03 -3.62574392E-03
  7.82991980E-03  1.67652159E-03 -1.67652159E-03 -1.67652159E-03 -3.62574392E-03
  7.82991980E-03 -1.67652159E-03  1.67652159E-03 -1.67652159E-03 -2.51282103E-01
  4.90782881E-01  1.26731089E-01  0.00000000E+00  0.00000000E+00  0.00000000E+00
  0.00000000E+00  0.00000000E+00  0.00000000E+00 -1.31476720E-16  0.00000000E+00
  0.00000000E+00  1.92510762E-16  0.00000000E+00  1.75139098E-01  3.70019714E-02
 -1.18940990E-02 -1.18940990E-02 -1.18940990E-02  1.75139098E-01  3.70019714E-02
  1.18940990E-02  1.18940990E-02 -1.18940990E-02  1.75139098E-01  3.70019714E-02
 -1.18940990E-02  1.18940990E-02  1.18940990E-02  1.75139098E-01  3.70019714E-02
  1.18940990E-02 -1.18940990E-02  1.18940990E-02  0.00000000E+00  0.00000000E+00
  0.00000000E+00  0.00000000E+00  4.41574956E-01  0.00000000E+00  0.00000000E+00
  1.88317894E-01  0.00000000E+00  0.00000000E+00  1.59825635E-02  0.00000000E+00
  0.00000000E+00  0.00000000E+00  2.22090338E-01  9.78363672E-02 -8.38336359E-03
  5.58129419E-03 -8.38336359E-03 -2.22090338E-01 -9.78363672E-02 -8.38336359E-03
  5.58129419E-03  8.38336359E-03 -2.22090338E-01 -9.78363672E-02  8.38336359E-03
  5.58129419E-03 -8.38336359E-03  2.22090338E-01  9.78363672E-02  8.38336359E-03
  5.58129419E-03  8.38336359E-03  0.00000000E+00  0.00000000E+00  0.00000000E+00
  0.00000000E+00  0.00000000E+00  4.41574956E-01  0.00000000E+00  0.00000000E+00
  1.88317894E-01  0.00000000E+00  0.00000000E+00  0.00000000E+00  0.00000000E+00
  1.59825635E-02  2.22090338E-01  9.78363672E-02 -8.38336359E-03 -8.38336359E-03
  5.58129419E-03  2.22090338E-01  9.78363672E-02  8.38336359E-03  8.38336359E-03
  5.58129419E-03 -2.22090338E-01 -9.78363672E-02  8.38336359E-03 -8.38336359E-03
  5.58129419E-03 -2.22090338E-01 -9.78363672E-02 -8.38336359E-03  8.38336359E-03
  5.58129419E-03  0.00000000E+00  0.00000000E+00  0.00000000E+00  4.41574956E-01
  0.00000000E+00  0.00000000E+00  1.88317894E-01  0.00000000E+00  0.00000000E+00
  0.00000000E+00  0.00000000E+00  1.59825635E-02  0.00000000E+00  0.00000000E+00
  2.22090338E-01  9.78363672E-02  5.58129419E-03 -8.38336359E-03 -8.38336359E-03
 -2.22090338E-01 -9.78363672E-02  5.58129419E-03 -8.38336359E-03  8.38336359E-03
  2.22090338E-01  9.78363672E-02  5.58129419E-03  8.38336359E-03  8.38336359E-03
 -2.22090338E-01 -9.78363672E-02  5.58129419E-03  8.38336359E-03 -8.38336359E-03
 -1.57963820E-01  2.64672519E-01  2.76599598E+00  0.00000000E+00  0.00000000E+00
  0.00000000E+00  0.00000000E+00  0.00000000E+00  0.00000000E+00  9.79239182E-16
  0.00000000E+00  0.00000000E+00 -3.27006227E-16  0.00000000E+00 -3.79703235E-02
 -1.02928978E+00 -5.28481265E-03 -5.28481265E-03 -5.28481265E-03 -3.79703235E-02
 -1.02928978E+00  5.28481265E-03  5.28481265E-03 -5.28481265E-03 -3.79703235E-02
 -1.02928978E+00 -5.28481265E-03  5.28481265E-03  5.28481265E-03 -3.79703235E-02
 -1.02928978E+00  5.28481265E-03 -5.28481265E-03  5.28481265E-03  0.00000000E+00
  0.00000000E+00  0.00000000E+00  3.96208481E-01  0.00000000E+00  0.00000000E+00
  1.21004870E+00  0.00000000E+00  0.00000000E+00  0.00000000E+00  0.00000000E+00
 -2.01474458E-02  0.00000000E+00  0.00000000E+00 -9.28147760E-02 -1.11653557E+00
  4.10022559E-03 -8.07477619E-03 -8.07477619E-03  9.28147760E-02  1.11653557E+00
  4.10022559E-03 -8.07477619E-03  8.07477619E-03 -9.28147760E-02 -1.11653557E+00
  4.10022559E-03  8.07477619E-03  8.07477619E-03  9.28147760E-02  1.11653557E+00
  4.10022559E-03  8.07477619E-03 -8.07477619E-03  0.00000000E+00  0.00000000E+00
  0.00000000E+00  0.00000000E+00  3.96208481E-01  0.00000000E+00  0.00000000E+00
  1.21004870E+00  0.00000000E+00  0.00000000E+00 -2.01474458E-02  0.00000000E+00
  0.00000000E+00  0.00000000E+00 -9.28147760E-02 -1.11653557E+00 -8.07477619E-03
  4.10022559E-03 -8.07477619E-03  9.28147760E-02  1.11653557E+00 -8.07477619E-03
  4.10022559E-03  8.07477619E-03  9.28147760E-02  1.11653557E+00  8.07477619E-03
  4.10022559E-03 -8.07477619E-03 -9.28147760E-02 -1.11653557E+00  8.07477619E-03
  4.10022559E-03  8.07477619E-03  0.00000000E+00  0.00000000E+00  0.00000000E+00
  0.00000000E+00  0.00000000E+00  3.96208481E-01  0.00000000E+00  0.00000000E+00
  1.21004870E+00  0.00000000E+00  0.00000000E+00  0.00000000E+00  0.00000000E+00
 -2.01474458E-02 -9.28147760E-02 -1.11653557E+00 -8.07477619E-03 -8.07477619E-03
  4.10022559E-03 -9.28147760E-02 -1.11653557E+00  8.07477619E-03  8.07477619E-03
  4.10022559E-03  9.28147760E-02  1.11653557E+00  8.07477619E-03 -8.07477619E-03
  4.10022559E-03  9.28147760E-02  1.11653557E+00 -8.07477619E-03  8.07477619E-03
  4.10022559E-03  0.00000000E+00  0.00000000E+00  0.00000000E+00  0.00000000E+00
 -2.98986926E-01  0.00000000E+00  0.00000000E+00  1.12861061E+00  0.00000000E+00
  0.00000000E+00 -9.04976314E-02  0.00000000E+00  0.00000000E+00  0.00000000E+00
 -5.09785821E-01  1.25727901E-01 -1.40823546E-02  3.27783935E-02 -1.40823546E-02
  5.09785821E-01 -1.25727901E-01 -1.40823546E-02  3.27783935E-02  1.40823546E-02
  5.09785821E-01 -1.25727901E-01  1.40823546E-02  3.27783935E-02 -1.40823546E-02
 -5.09785821E-01  1.25727901E-01  1.40823546E-02  3.27783935E-02  1.40823546E-02
  0.00000000E+00  0.00000000E+00  0.00000000E+00  0.00000000E+00  0.00000000E+00
 -2.98986926E-01  0.00000000E+00  0.00000000E+00  1.12861061E+00  0.00000000E+00
  0.00000000E+00  0.00000000E+00  0.00000000E+00 -9.04976314E-02 -5.09785821E-01
  1.25727901E-01 -1.40823546E-02 -1.40823546E-02  3.27783935E-02 -5.09785821E-01
  1.25727901E-01  1.40823546E-02  1.40823546E-02  3.27783935E-02  5.09785821E-01
 -1.25727901E-01  1.40823546E-02 -1.40823546E-02  3.27783935E-02  5.09785821E-01
 -1.25727901E-01 -1.40823546E-02  1.40823546E-02  3.27783935E-02  0.00000000E+00
  0.00000000E+00  0.00000000E+00 -2.98986926E-01  0.00000000E+00  0.00000000E+00
  1.12861061E+00  0.00000000E+00  0.00000000E+00  0.00000000E+00  0.00000000E+00
 -9.04976314E-02  0.00000000E+00  0.00000000E+00 -5.09785821E-01  1.25727901E-01
  3.27783935E-02 -1.40823546E-02 -1.40823546E-02  5.09785821E-01 -1.25727901E-01
  3.27783935E-02 -1.40823546E-02  1.40823546E-02 -5.09785821E-01  1.25727901E-01
  3.27783935E-02  1.40823546E-02  1.40823546E-02  5.09785821E-01 -1.25727901E-01
  3.27783935E-02  1.40823546E-02 -1.40823546E-02  3.01180597E-01 -1.77681650E+00
  4.13944987E+00  0.00000000E+00  0.00000000E+00  0.00000000E+00  0.00000000E+00
  0.00000000E+00  0.00000000E+00  2.34166938E-15  0.00000000E+00  0.00000000E+00
 -1.18825304E-15  0.00000000E+00  4.06571855E-01 -1.11602818E+00  5.86788490E-02