 Entering Gaussian System, Link 0=g09
 Input=methane.df-pbesvp.prop.com
 Output=methane.df-pbesvp.prop.log
 Initial command:
 /home/chemsoft/gaussian/g09e01/g09/l1.exe "/scr/martin/g09job.inter1516600886/Gau-9589.inp" -scrdir="/scr/martin/g09job.inter1516600886/"
 Entering Link 1 = /home/chemsoft/gaussian/g09e01/g09/l1.exe PID=      9590.
  
 Copyright (c) 1988,1990,1992,1993,1995,1998,2003,2009,2015,
            Gaussian, Inc.  All Rights Reserved.
  
 This is part of the Gaussian(R) 09 program.  It is based on
 the Gaussian(R) 03 system (copyright 2003, Gaussian, Inc.),
 the Gaussian(R) 98 system (copyright 1998, Gaussian, Inc.),
 the Gaussian(R) 94 system (copyright 1995, Gaussian, Inc.),
 the Gaussian 92(TM) system (copyright 1992, Gaussian, Inc.),
 the Gaussian 90(TM) system (copyright 1990, Gaussian, Inc.),
 the Gaussian 88(TM) system (copyright 1988, Gaussian, Inc.),
 the Gaussian 86(TM) system (copyright 1986, Carnegie Mellon
 University), and the Gaussian 82(TM) system (copyright 1983,
 Carnegie Mellon University). Gaussian is a federally registered
 trademark of Gaussian, Inc.
  
 This software contains proprietary and confidential information,
 including trade secrets, belonging to Gaussian, Inc.
  
 This software is provided under written license and may be
 used, copied, transmitted, or stored only in accord with that
 written license.
  
 The following legend is applicable only to US Government
 contracts under FAR:
  
                    RESTRICTED RIGHTS LEGEND
  
 Use, reproduction and disclosure by the US Government is
 subject to restrictions as set forth in subparagraphs (a)
 and (c) of the Commercial Computer Software - Restricted
 Rights clause in FAR 52.227-19.
  
 Gaussian, Inc.
 340 Quinnipiac St., Bldg. 40, Wallingford CT 06492
  
  
 ---------------------------------------------------------------
 Warning -- This program may not be used in any manner that
 competes with the business of Gaussian, Inc. or will provide
 assistance to any competitor of Gaussian, Inc.  The licensee
 of this program is prohibited from giving any competitor of
 Gaussian, Inc. access to this program.  By using this program,
 the user acknowledges that Gaussian, Inc. is engaged in the
 business of creating and licensing software in the field of
 computational chemistry and represents and warrants to the
 licensee that it is not a competitor of Gaussian, Inc. and that
 it will not use this program in any manner prohibited above.
 ---------------------------------------------------------------
  

 Cite this work as:
 Gaussian 09, Revision E.01,
 M. J. Frisch, G. W. Trucks, H. B. Schlegel, G. E. Scuseria, 
 M. A. Robb, J. R. Cheeseman, G. Scalmani, V. Barone, B. Mennucci, 
 G. A. Petersson, H. Nakatsuji, M. Caricato, X. Li, H. P. Hratchian, 
 A. F. Izmaylov, J. Bloino, G. Zheng, J. L. Sonnenberg, M. Hada, 
 M. Ehara, K. Toyota, R. Fukuda, J. Hasegawa, M. Ishida, T. Nakajima, 
 Y. Honda, O. Kitao, H. Nakai, T. Vreven, J. A. Montgomery, Jr., 
 J. E. Peralta, F. Ogliaro, M. Bearpark, J. J. Heyd, E. Brothers, 
 K. N. Kudin, V. N. Staroverov, T. Keith, R. Kobayashi, J. Normand, 
 K. Raghavachari, A. Rendell, J. C. Burant, S. S. Iyengar, J. Tomasi, 
 M. Cossi, N. Rega, J. M. Millam, M. Klene, J. E. Knox, J. B. Cross, 
 V. Bakken, C. Adamo, J. Jaramillo, R. Gomperts, R. E. Stratmann, 
 O. Yazyev, A. J. Austin, R. Cammi, C. Pomelli, J. W. Ochterski, 
 R. L. Martin, K. Morokuma, V. G. Zakrzewski, G. A. Voth, 
 P. Salvador, J. J. Dannenberg, S. Dapprich, A. D. Daniels, 
 O. Farkas, J. B. Foresman, J. V. Ortiz, J. Cioslowski, 
 and D. J. Fox, Gaussian, Inc., Wallingford CT, 2013.
 
 ******************************************
 Gaussian 09:  ES64L-G09RevE.01 30-Nov-2015
                22-Jan-2018 
 ******************************************
 %oldchk=methane.df-pbesvp.chk
 %NoSave
 Copying data from "methane.df-pbesvp.chk" to current chk file "/scr/martin/g09job.inter1516600886/Gau-9590.chk".
 ----------------------------------------------------------------------
 #P PBEPBE/def2SVP/W06 DenFit scf(xqc,MaxConventionalCycle=500) int(ult
 rafinegrid) gfinput gfoldprint iop(6/7=3) symmetry(loose) geom(allchec
 k) guess(read,only) output=wfx
 ----------------------------------------------------------------------
 1/29=7,38=1/1;
 2/12=2,17=4,18=3,40=1/2;
 3/5=43,7=101,11=2,14=-4,16=1,24=11,25=1,30=1,74=1009,75=-5,82=40,89=1,116=-2/1,2,3;
 4/5=1/1;
 6/7=3,28=1/1;
 99/5=2,6=200/99;
 Leave Link    1 at Mon Jan 22 15:01:27 2018, MaxMem=   536870912 cpu:         0.1
 (Enter /home/chemsoft/gaussian/g09e01/g09/l101.exe)
 Structure from the checkpoint file:  "/scr/martin/g09job.inter1516600886/Gau-9590.chk"
 -----------------------
 Methane DF-PBE/def2-SVP
 -----------------------
 Charge =  0 Multiplicity = 1
 Redundant internal coordinates found in file.
 C,0,0.,0.,0.
 H,0,0.63857389,0.63857389,0.63857389
 H,0,0.63857389,-0.638573887,-0.638573893
 H,0,-0.638573893,0.63857389,-0.638573887
 H,0,-0.638573887,-0.638573893,0.63857389
 Recover connectivity data from disk.
 NAtoms=      5 NQM=        5 NQMF=       0 NMMI=      0 NMMIF=      0
                NMic=       0 NMicF=      0.
                    Isotopes and Nuclear Properties:
 (Nuclear quadrupole moments (NQMom) in fm**2, nuclear magnetic moments (NMagM)
  in nuclear magnetons)

  Atom         1           2           3           4           5
 IAtWgt=          12           1           1           1           1
 AtmWgt=  12.0000000   1.0078250   1.0078250   1.0078250   1.0078250
 NucSpn=           0           1           1           1           1
 AtZEff=  -3.6000000  -1.0000000  -1.0000000  -1.0000000  -1.0000000
 NQMom=    0.0000000   0.0000000   0.0000000   0.0000000   0.0000000
 NMagM=    0.0000000   2.7928460   2.7928460   2.7928460   2.7928460
 AtZNuc=   6.0000000   1.0000000   1.0000000   1.0000000   1.0000000
 Leave Link  101 at Mon Jan 22 15:01:27 2018, MaxMem=   536870912 cpu:         0.3
 (Enter /home/chemsoft/gaussian/g09e01/g09/l202.exe)
                          Input orientation:                          
 ---------------------------------------------------------------------
 Center     Atomic      Atomic             Coordinates (Angstroms)
 Number     Number       Type             X           Y           Z
 ---------------------------------------------------------------------
      1          6           0       -0.000000    0.000000    0.000000
      2          1           0        0.638574    0.638574    0.638574
      3          1           0        0.638574   -0.638574   -0.638574
      4          1           0       -0.638574    0.638574   -0.638574
      5          1           0       -0.638574   -0.638574    0.638574
 ---------------------------------------------------------------------
                    Distance matrix (angstroms):
                    1          2          3          4          5
     1  C    0.000000
     2  H    1.106042   0.000000
     3  H    1.106042   1.806160   0.000000
     4  H    1.106042   1.806160   1.806160   0.000000
     5  H    1.106042   1.806160   1.806160   1.806160   0.000000
 Stoichiometry    CH4
 Framework group  TD[O(C),4C3(H)]
 Deg. of freedom     1
 Full point group                 TD      NOp  24
 RotChk:  IX=0 Diff= 6.35D-16
 Largest Abelian subgroup         D2      NOp   4
 Largest concise Abelian subgroup D2      NOp   4
                         Standard orientation:                         
 ---------------------------------------------------------------------
 Center     Atomic      Atomic             Coordinates (Angstroms)
 Number     Number       Type             X           Y           Z
 ---------------------------------------------------------------------
      1          6           0        0.000000    0.000000    0.000000
      2          1           0        0.638574    0.638574    0.638574
      3          1           0       -0.638574   -0.638574    0.638574
      4          1           0        0.638574   -0.638574   -0.638574
      5          1           0       -0.638574    0.638574   -0.638574
 ---------------------------------------------------------------------
 Rotational constants (GHZ):    153.7162396    153.7162396    153.7162396
 Leave Link  202 at Mon Jan 22 15:01:27 2018, MaxMem=   536870912 cpu:         0.0
 (Enter /home/chemsoft/gaussian/g09e01/g09/l301.exe)
 Standard basis: def2SVP (5D, 7F)
 ======================================================================================================
                                       Pseudopotential Parameters
 ======================================================================================================
  Center     Atomic      Valence      Angular      Power
  Number     Number     Electrons     Momentum     of R      Exponent        Coefficient   SO-Coeffient
 ======================================================================================================
    1          6
                                   No pseudopotential on this center.
    2          1
                                   No pseudopotential on this center.
    3          1
                                   No pseudopotential on this center.
    4          1
                                   No pseudopotential on this center.
    5          1
                                   No pseudopotential on this center.
 ======================================================================================================
 Ernie: Thresh=  0.10000D-02 Tol=  0.10000D-05 Strict=F.
 AO basis set in the form of general basis input (Overlap normalization):
      1 0
 S   5 1.00       0.000000000000
      0.1238401694D+04  0.5517365048D-02
      0.1862900499D+03  0.4108882856D-01
      0.4225117635D+02  0.1822538213D+00
      0.1167655793D+02  0.4682845944D+00
      0.3593050648D+01  0.4457581734D+00
 S   1 1.00       0.000000000000
      0.4024514736D+00  0.1000000000D+01
 S   1 1.00       0.000000000000
      0.1309018267D+00  0.1000000000D+01
 P   3 1.00       0.000000000000
      0.9468097062D+01  0.5688833201D-01
      0.2010354514D+01  0.3129405934D+00
      0.5477100471D+00  0.7606501651D+00
 P   1 1.00       0.000000000000
      0.1526861379D+00  0.1000000000D+01
 D   1 1.00       0.000000000000
      0.8000000000D+00  0.1000000000D+01
 ****
      2 0
 S   3 1.00       0.000000000000
      0.1301070100D+02  0.3348548481D-01
      0.1962257200D+01  0.2347218709D+00
      0.4445379600D+00  0.8137702853D+00
 S   1 1.00       0.000000000000
      0.1219496200D+00  0.1000000000D+01
 P   1 1.00       0.000000000000
      0.8000000000D+00  0.1000000000D+01
 ****
      3 0
 S   3 1.00       0.000000000000
      0.1301070100D+02  0.3348548481D-01
      0.1962257200D+01  0.2347218709D+00
      0.4445379600D+00  0.8137702853D+00
 S   1 1.00       0.000000000000
      0.1219496200D+00  0.1000000000D+01
 P   1 1.00       0.000000000000
      0.8000000000D+00  0.1000000000D+01
 ****
      4 0
 S   3 1.00       0.000000000000
      0.1301070100D+02  0.3348548481D-01
      0.1962257200D+01  0.2347218709D+00
      0.4445379600D+00  0.8137702853D+00
 S   1 1.00       0.000000000000
      0.1219496200D+00  0.1000000000D+01
 P   1 1.00       0.000000000000
      0.8000000000D+00  0.1000000000D+01
 ****
      5 0
 S   3 1.00       0.000000000000
      0.1301070100D+02  0.3348548481D-01
      0.1962257200D+01  0.2347218709D+00
      0.4445379600D+00  0.8137702853D+00
 S   1 1.00       0.000000000000
      0.1219496200D+00  0.1000000000D+01
 P   1 1.00       0.000000000000
      0.8000000000D+00  0.1000000000D+01
 ****

 ***********************************************************************************************************************************
 *             ATOMIC CENTER             *        ATOMIC ORBITAL       *                     GAUSSIAN FUNCTIONS                    *
 ***********************************************************************************************************************************
 *                                       * FUNCTION    SHELL    SCALE  *                                                           *
 *    ATOM   X-COORD  Y-COORD  Z-COORD   *  NUMBER     TYPE     FACTOR *  EXPONENT    S-COEF      P-COEF      D-COEF      F-COEF   *
 ***********************************************************************************************************************************
 *     C      0.00000  0.00000  0.00000                                                                                            *
+                                                1   S           1.00                                                               
+                                                                      0.123840D+040.820896D+000.000000D+000.000000D+000.000000D+00 
 *                                                                     0.186290D+030.147664D+010.000000D+000.000000D+000.000000D+00*
 *                                                                     0.422512D+020.215261D+010.000000D+000.000000D+000.000000D+00*
 *                                                                     0.116766D+020.210817D+010.000000D+000.000000D+000.000000D+00*
 *                                                                     0.359305D+010.829100D+000.000000D+000.000000D+000.000000D+00*
 *                                               2   S           1.00                                                              *
+                                                                      0.402451D+000.360118D+000.000000D+000.000000D+000.000000D+00 
 *                                               3   S           1.00                                                              *
+                                                                      0.130902D+000.155103D+000.000000D+000.000000D+000.000000D+00 
 *                                           4-  6   P           1.00                                                              *
+                                                                      0.946810D+010.000000D+000.134676D+010.000000D+000.000000D+00 
 *                                                                     0.201035D+010.000000D+000.106781D+010.000000D+000.000000D+00*
 *                                                                     0.547710D+000.000000D+000.510874D+000.000000D+000.000000D+00*
 *                                           7-  9   P           1.00                                                              *
+                                                                      0.152686D+000.000000D+000.136047D+000.000000D+000.000000D+00 
 *                                          10- 14   D           1.00                                                              *
+                                                                      0.800000D+000.000000D+000.000000D+000.111382D+010.000000D+00 
 *---------------------------------------------------------------------------------------------------------------------------------*
 *     H      1.20673  1.20673  1.20673                                                                                            *
+                                               15   S           1.00                                                               
+                                                                      0.130107D+020.163490D+000.000000D+000.000000D+000.000000D+00 
 *                                                                     0.196226D+010.277352D+000.000000D+000.000000D+000.000000D+00*
 *                                                                     0.444538D+000.315750D+000.000000D+000.000000D+000.000000D+00*
 *                                              16   S           1.00                                                              *
+                                                                      0.121950D+000.147077D+000.000000D+000.000000D+000.000000D+00 
 *                                          17- 19   P           1.00                                                              *
+                                                                      0.800000D+000.000000D+000.107846D+010.000000D+000.000000D+00 
 *---------------------------------------------------------------------------------------------------------------------------------*
 *     H     -1.20673 -1.20673  1.20673                                                                                            *
+                                               20   S           1.00                                                               
+                                                                      0.130107D+020.163490D+000.000000D+000.000000D+000.000000D+00 
 *                                                                     0.196226D+010.277352D+000.000000D+000.000000D+000.000000D+00*
 *                                                                     0.444538D+000.315750D+000.000000D+000.000000D+000.000000D+00*
 *                                              21   S           1.00                                                              *
+                                                                      0.121950D+000.147077D+000.000000D+000.000000D+000.000000D+00 
 *                                          22- 24   P           1.00                                                              *
+                                                                      0.800000D+000.000000D+000.107846D+010.000000D+000.000000D+00 
 *---------------------------------------------------------------------------------------------------------------------------------*
 *     H      1.20673 -1.20673 -1.20673                                                                                            *
+                                               25   S           1.00                                                               
+                                                                      0.130107D+020.163490D+000.000000D+000.000000D+000.000000D+00 
 *                                                                     0.196226D+010.277352D+000.000000D+000.000000D+000.000000D+00*
 *                                                                     0.444538D+000.315750D+000.000000D+000.000000D+000.000000D+00*
 *                                              26   S           1.00                                                              *
+                                                                      0.121950D+000.147077D+000.000000D+000.000000D+000.000000D+00 
 *                                          27- 29   P           1.00                                                              *
+                                                                      0.800000D+000.000000D+000.107846D+010.000000D+000.000000D+00 
 *---------------------------------------------------------------------------------------------------------------------------------*
 *     H     -1.20673  1.20673 -1.20673                                                                                            *
+                                               30   S           1.00                                                               
+                                                                      0.130107D+020.163490D+000.000000D+000.000000D+000.000000D+00 
 *                                                                     0.196226D+010.277352D+000.000000D+000.000000D+000.000000D+00*
 *                                                                     0.444538D+000.315750D+000.000000D+000.000000D+000.000000D+00*
 *                                              31   S           1.00                                                              *
+                                                                      0.121950D+000.147077D+000.000000D+000.000000D+000.000000D+00 
 *                                          32- 34   P           1.00                                                              *
+                                                                      0.800000D+000.000000D+000.107846D+010.000000D+000.000000D+00 
 ***********************************************************************************************************************************
 There are    11 symmetry adapted cartesian basis functions of A   symmetry.
 There are     8 symmetry adapted cartesian basis functions of B1  symmetry.
 There are     8 symmetry adapted cartesian basis functions of B2  symmetry.
 There are     8 symmetry adapted cartesian basis functions of B3  symmetry.
 There are    10 symmetry adapted basis functions of A   symmetry.
 There are     8 symmetry adapted basis functions of B1  symmetry.
 There are     8 symmetry adapted basis functions of B2  symmetry.
 There are     8 symmetry adapted basis functions of B3  symmetry.
    34 basis functions,    53 primitive gaussians,    35 cartesian basis functions
     5 alpha electrons        5 beta electrons
       nuclear repulsion energy        13.2405176631 Hartrees.
 IExCor= 1009 DFT=T Ex=PBE Corr=PBE ExCW=0 ScaHFX=  0.000000
 ScaDFX=  1.000000  1.000000  1.000000  1.000000 ScalE2=  1.000000  1.000000
 IRadAn=      5 IRanWt=     -1 IRanGd=            0 ICorTp=0 IEmpDi=  4
 NAtoms=    5 NActive=    5 NUniq=    2 SFac= 4.00D+00 NAtFMM=   60 NAOKFM=F Big=F
 Integral buffers will be    131072 words long.
 Raffenetti 2 integral format.
 Two-electron integral symmetry is turned on.
 Standard density basis: W06 (5D, 7F)
    93 Density fitting functions
 Density basis set in the form of general basis input (Coulomb normalization):
      1 0
 S   7 1.00       0.000000000000
      0.1861091633D+04  0.1630432275D-02
      0.6429939764D+03  0.6165022455D-02
      0.2351105725D+03  0.3437464972D-01
      0.9070288940D+02  0.1300917169D+00
      0.3677945520D+02  0.3381150662D+00
      0.1560462730D+02  0.4227614567D+00
      0.6890729400D+01  0.1055268299D+00
 S   1 1.00       0.000000000000
      0.3147885000D+01 -0.1000000000D+01
 S   1 1.00       0.000000000000
      0.1477728700D+01  0.1000000000D+01
 S   1 1.00       0.000000000000
      0.7076466000D+00  0.1000000000D+01
 S   1 1.00       0.000000000000
      0.3430122000D+00  0.1000000000D+01
 S   1 1.00       0.000000000000
      0.1669453000D+00  0.1000000000D+01
 P   2 1.00       0.000000000000
      0.1354728920D+02 -0.5516210369D+00
      0.5466941900D+01 -0.4848245610D+00
 P   1 1.00       0.000000000000
      0.2175172100D+01  0.1000000000D+01
 P   1 1.00       0.000000000000
      0.8582194000D+00  0.1000000000D+01
 P   1 1.00       0.000000000000
      0.3376720000D+00  0.1000000000D+01
 D   2 1.00       0.000000000000
      0.5928725300D+01 -0.2191848255D+00
      0.1980920900D+01 -0.8002209528D+00
 D   1 1.00       0.000000000000
      0.8055417000D+00 -0.1000000000D+01
 D   1 1.00       0.000000000000
      0.3531244000D+00 -0.1000000000D+01
 F   2 1.00       0.000000000000
      0.1675562600D+01  0.4584544753D+00
      0.5997536000D+00  0.6032297392D+00
 G   1 1.00       0.000000000000
      0.1002460000D+01 -0.1000000000D+01
 ****
      2 0
 S   3 1.00       0.000000000000
      0.1567529270D+02  0.3261158972D-01
      0.3606357800D+01  0.2298046837D+00
      0.1208001600D+01  0.7572083240D+00
 S   1 1.00       0.000000000000
      0.4726794000D+00  0.1000000000D+01
 S   1 1.00       0.000000000000
      0.2018100000D+00  0.1000000000D+01
 P   2 1.00       0.000000000000
      0.2028136500D+01  0.3618361986D+00
      0.5358730000D+00  0.7039303088D+00
 D   1 1.00       0.000000000000
      0.2216512400D+01  0.1000000000D+01
 ****
      3 0
 S   3 1.00       0.000000000000
      0.1567529270D+02  0.3261158972D-01
      0.3606357800D+01  0.2298046837D+00
      0.1208001600D+01  0.7572083240D+00
 S   1 1.00       0.000000000000
      0.4726794000D+00  0.1000000000D+01
 S   1 1.00       0.000000000000
      0.2018100000D+00  0.1000000000D+01
 P   2 1.00       0.000000000000
      0.2028136500D+01  0.3618361986D+00
      0.5358730000D+00  0.7039303088D+00
 D   1 1.00       0.000000000000
      0.2216512400D+01  0.1000000000D+01
 ****
      4 0
 S   3 1.00       0.000000000000
      0.1567529270D+02  0.3261158972D-01
      0.3606357800D+01  0.2298046837D+00
      0.1208001600D+01  0.7572083240D+00
 S   1 1.00       0.000000000000
      0.4726794000D+00  0.1000000000D+01
 S   1 1.00       0.000000000000
      0.2018100000D+00  0.1000000000D+01
 P   2 1.00       0.000000000000
      0.2028136500D+01  0.3618361986D+00
      0.5358730000D+00  0.7039303088D+00
 D   1 1.00       0.000000000000
      0.2216512400D+01  0.1000000000D+01
 ****
      5 0
 S   3 1.00       0.000000000000
      0.1567529270D+02  0.3261158972D-01
      0.3606357800D+01  0.2298046837D+00
      0.1208001600D+01  0.7572083240D+00
 S   1 1.00       0.000000000000
      0.4726794000D+00  0.1000000000D+01
 S   1 1.00       0.000000000000
      0.2018100000D+00  0.1000000000D+01
 P   2 1.00       0.000000000000
      0.2028136500D+01  0.3618361986D+00
      0.5358730000D+00  0.7039303088D+00
 D   1 1.00       0.000000000000
      0.2216512400D+01  0.1000000000D+01
 ****

 There are    93 symmetry adapted density basis functions of A   symmetry.
 Leave Link  301 at Mon Jan 22 15:01:27 2018, MaxMem=   536870912 cpu:         0.2
 (Enter /home/chemsoft/gaussian/g09e01/g09/l302.exe)
 NPDir=0 NMtPBC=     1 NCelOv=     1 NCel=       1 NClECP=     1 NCelD=      1
         NCelK=      1 NCelE2=     1 NClLst=     1 CellRange=     0.0.
 One-electron integrals computed using PRISM.
 One-electron integral symmetry used in STVInt
  24 Symmetry operations used in ECPInt.
 ECPInt:  NShTT=     171 NPrTT=     553 LenC2=     172 LenP2D=     539.
 LDataN:  DoStor=T MaxTD1= 4 Len=   56
 NBasis=    34 RedAO= T EigKep=  1.89D-02  NBF=    10     8     8     8
 NBsUse=    34 1.00D-06 EigRej= -1.00D+00 NBFU=    10     8     8     8
 Precomputing XC quadrature grid using
 IXCGrd= 4 IRadAn=           5 IRanWt=          -1 IRanGd=           0 AccXCQ= 0.00D+00.
 Generated NRdTot=       0 NPtTot=           0 NUsed=           0 NTot=          32
 NSgBfM=    35    35    35    35    35 MxSgAt=     5 MxSgA2=     5.
 Leave Link  302 at Mon Jan 22 15:01:28 2018, MaxMem=   536870912 cpu:         0.3
 (Enter /home/chemsoft/gaussian/g09e01/g09/l303.exe)
 DipDrv:  MaxL=1.
 Leave Link  303 at Mon Jan 22 15:01:28 2018, MaxMem=   536870912 cpu:         0.0
 (Enter /home/chemsoft/gaussian/g09e01/g09/l401.exe)
 Initial guess from the checkpoint file:  "/scr/martin/g09job.inter1516600886/Gau-9590.chk"
 B after Tr=     0.000000    0.000000   -0.000000
         Rot=    1.000000    0.000000   -0.000000    0.000000 Ang=   0.00 deg.
 Guess basis will be translated and rotated to current coordinates.
 JPrj=2 DoOrth=T DoCkMO=T.
 Initial guess orbital symmetries:
       Occupied  (A1) (A1) (T2) (T2) (T2)
       Virtual   (A1) (T2) (T2) (T2) (T2) (T2) (T2) (A1) (T2) (T2)
                 (T2) (A1) (E) (E) (T1) (T1) (T1) (T2) (T2) (T2)
                 (T2) (T2) (T2) (E) (E) (A1) (T2) (T2) (T2)
 The electronic state of the initial guess is 1-A1.
 Leave Link  401 at Mon Jan 22 15:01:28 2018, MaxMem=   536870912 cpu:         0.1
 (Enter /home/chemsoft/gaussian/g09e01/g09/l601.exe)
 Copying SCF densities to generalized density rwf, IOpCl= 0 IROHF=0.

 **********************************************************************

            Population analysis using the SCF density.

 **********************************************************************

 Orbital symmetries:
       Occupied  (A1) (A1) (T2) (T2) (T2)
       Virtual   (A1) (T2) (T2) (T2) (T2) (T2) (T2) (A1) (T2) (T2)
                 (T2) (A1) (E) (E) (T1) (T1) (T1) (T2) (T2) (T2)
                 (T2) (T2) (T2) (E) (E) (A1) (T2) (T2) (T2)
 The electronic state is 1-A1.
 Alpha  occ. eigenvalues --   -9.88580  -0.61262  -0.34073  -0.34073  -0.34073
 Alpha virt. eigenvalues --    0.05315   0.11867   0.11867   0.11867   0.38877
 Alpha virt. eigenvalues --    0.38877   0.38877   0.60034   0.63015   0.63015
 Alpha virt. eigenvalues --    0.63015   0.73111   1.03681   1.03681   1.46140
 Alpha virt. eigenvalues --    1.46140   1.46140   1.68310   1.68310   1.68310
 Alpha virt. eigenvalues --    2.04580   2.04580   2.04580   2.42771   2.42771
 Alpha virt. eigenvalues --    2.49013   2.80920   2.80920   2.80920
     Molecular Orbital Coefficients:
                           1         2         3         4         5
                        (A1)--O   (A1)--O   (T2)--O   (T2)--O   (T2)--O
     Eigenvalues --    -9.88580  -0.61262  -0.34073  -0.34073  -0.34073
   1 1   C  1S          0.98737  -0.25128   0.00000   0.00000   0.00000
   2        2S          0.05363   0.49078   0.00000   0.00000   0.00000
   3        3S         -0.04142   0.12673   0.00000   0.00000   0.00000
   4        4PX         0.00000   0.00000   0.00000   0.00000   0.44157
   5        4PY         0.00000   0.00000   0.44157   0.00000   0.00000
   6        4PZ         0.00000   0.00000   0.00000   0.44157   0.00000
   7        5PX         0.00000   0.00000   0.00000   0.00000   0.18832
   8        5PY         0.00000   0.00000   0.18832   0.00000   0.00000
   9        5PZ         0.00000   0.00000   0.00000   0.18832   0.00000
  10        6D 0       -0.00000   0.00000   0.00000   0.00000   0.00000
  11        6D+1        0.00000   0.00000   0.01598   0.00000   0.00000
  12        6D-1        0.00000   0.00000   0.00000   0.00000   0.01598
  13        6D+2        0.00000   0.00000   0.00000   0.00000   0.00000
  14        6D-2        0.00000   0.00000   0.00000   0.01598   0.00000
  15 2   H  1S         -0.00363   0.17514   0.22209   0.22209   0.22209
  16        2S          0.00783   0.03700   0.09784   0.09784   0.09784
  17        3PX         0.00168  -0.01189  -0.00838  -0.00838   0.00558
  18        3PY         0.00168  -0.01189   0.00558  -0.00838  -0.00838
  19        3PZ         0.00168  -0.01189  -0.00838   0.00558  -0.00838
  20 3   H  1S         -0.00363   0.17514  -0.22209   0.22209  -0.22209
  21        2S          0.00783   0.03700  -0.09784   0.09784  -0.09784
  22        3PX        -0.00168   0.01189  -0.00838   0.00838   0.00558
  23        3PY        -0.00168   0.01189   0.00558   0.00838  -0.00838
  24        3PZ         0.00168  -0.01189   0.00838   0.00558   0.00838
  25 4   H  1S         -0.00363   0.17514  -0.22209  -0.22209   0.22209
  26        2S          0.00783   0.03700  -0.09784  -0.09784   0.09784
  27        3PX         0.00168  -0.01189   0.00838   0.00838   0.00558
  28        3PY        -0.00168   0.01189   0.00558  -0.00838   0.00838
  29        3PZ        -0.00168   0.01189  -0.00838   0.00558   0.00838
  30 5   H  1S         -0.00363   0.17514   0.22209  -0.22209  -0.22209
  31        2S          0.00783   0.03700   0.09784  -0.09784  -0.09784
  32        3PX        -0.00168   0.01189   0.00838  -0.00838   0.00558
  33        3PY         0.00168  -0.01189   0.00558   0.00838   0.00838
  34        3PZ        -0.00168   0.01189   0.00838   0.00558  -0.00838
                           6         7         8         9        10
                        (A1)--V   (T2)--V   (T2)--V   (T2)--V   (T2)--V
     Eigenvalues --     0.05315   0.11867   0.11867   0.11867   0.38877
   1 1   C  1S         -0.15796   0.00000   0.00000   0.00000   0.00000
   2        2S          0.26467   0.00000   0.00000   0.00000   0.00000
   3        3S          2.76600   0.00000   0.00000   0.00000   0.00000
   4        4PX         0.00000   0.39621   0.00000   0.00000   0.00000
   5        4PY         0.00000   0.00000   0.39621   0.00000  -0.29899
   6        4PZ         0.00000   0.00000   0.00000   0.39621   0.00000
   7        5PX         0.00000   1.21005   0.00000   0.00000   0.00000
   8        5PY         0.00000   0.00000   1.21005   0.00000   1.12861
   9        5PZ         0.00000   0.00000   0.00000   1.21005   0.00000
  10        6D 0        0.00000   0.00000   0.00000   0.00000   0.00000
  11        6D+1        0.00000   0.00000  -0.02015   0.00000  -0.09050
  12        6D-1        0.00000  -0.02015   0.00000   0.00000   0.00000
  13        6D+2        0.00000   0.00000   0.00000   0.00000   0.00000
  14        6D-2        0.00000   0.00000   0.00000  -0.02015   0.00000
  15 2   H  1S         -0.03797  -0.09281  -0.09281  -0.09281  -0.50979
  16        2S         -1.02929  -1.11654  -1.11654  -1.11654   0.12573
  17        3PX        -0.00528   0.00410  -0.00807  -0.00807  -0.01408
  18        3PY        -0.00528  -0.00807   0.00410  -0.00807   0.03278
  19        3PZ        -0.00528  -0.00807  -0.00807   0.00410  -0.01408
  20 3   H  1S         -0.03797   0.09281   0.09281  -0.09281   0.50979
  21        2S         -1.02929   1.11654   1.11654  -1.11654  -0.12573
  22        3PX         0.00528   0.00410  -0.00807   0.00807  -0.01408
  23        3PY         0.00528  -0.00807   0.00410   0.00807   0.03278
  24        3PZ        -0.00528   0.00807   0.00807   0.00410   0.01408
  25 4   H  1S         -0.03797  -0.09281   0.09281   0.09281   0.50979
  26        2S         -1.02929  -1.11654   1.11654   1.11654  -0.12573
  27        3PX        -0.00528   0.00410   0.00807   0.00807   0.01408
  28        3PY         0.00528   0.00807   0.00410  -0.00807   0.03278
  29        3PZ         0.00528   0.00807  -0.00807   0.00410  -0.01408
  30 5   H  1S         -0.03797   0.09281  -0.09281   0.09281  -0.50979
  31        2S         -1.02929   1.11654  -1.11654   1.11654   0.12573
  32        3PX         0.00528   0.00410   0.00807  -0.00807   0.01408
  33        3PY        -0.00528   0.00807   0.00410   0.00807   0.03278
  34        3PZ         0.00528  -0.00807   0.00807   0.00410   0.01408
                          11        12        13        14        15
                        (T2)--V   (T2)--V   (A1)--V   (T2)--V   (T2)--V
     Eigenvalues --     0.38877   0.38877   0.60034   0.63015   0.63015
   1 1   C  1S          0.00000   0.00000   0.30118   0.00000   0.00000
   2        2S          0.00000   0.00000  -1.77682   0.00000   0.00000
   3        3S          0.00000   0.00000   4.13945   0.00000   0.00000
   4        4PX         0.00000  -0.29899   0.00000   0.00000  -0.93575
   5        4PY         0.00000   0.00000   0.00000  -0.93575   0.00000
   6        4PZ        -0.29899   0.00000   0.00000   0.00000   0.00000
   7        5PX         0.00000   1.12861   0.00000   0.00000   1.67637
   8        5PY         0.00000   0.00000   0.00000   1.67637   0.00000
   9        5PZ         1.12861   0.00000   0.00000   0.00000   0.00000
  10        6D 0        0.00000   0.00000   0.00000   0.00000   0.00000
  11        6D+1        0.00000   0.00000   0.00000   0.13528   0.00000
  12        6D-1        0.00000  -0.09050   0.00000   0.00000   0.13528
  13        6D+2        0.00000   0.00000  -0.00000   0.00000   0.00000
  14        6D-2       -0.09050   0.00000   0.00000   0.00000   0.00000
  15 2   H  1S         -0.50979  -0.50979   0.40657   0.32916   0.32916
  16        2S          0.12573   0.12573  -1.11603  -1.10687  -1.10687
  17        3PX        -0.01408   0.03278   0.05868   0.07425   0.01933
  18        3PY        -0.01408  -0.01408   0.05868   0.01933   0.07425
  19        3PZ         0.03278  -0.01408   0.05868   0.07425   0.07425
  20 3   H  1S         -0.50979   0.50979   0.40657  -0.32916  -0.32916
  21        2S          0.12573  -0.12573  -1.11603   1.10687   1.10687
  22        3PX         0.01408   0.03278  -0.05868   0.07425   0.01933
  23        3PY         0.01408  -0.01408  -0.05868   0.01933   0.07425
  24        3PZ         0.03278   0.01408   0.05868  -0.07425  -0.07425
  25 4   H  1S          0.50979  -0.50979   0.40657  -0.32916   0.32916
  26        2S         -0.12573   0.12573  -1.11603   1.10687  -1.10687
  27        3PX         0.01408   0.03278   0.05868  -0.07425   0.01933
  28        3PY        -0.01408   0.01408  -0.05868   0.01933  -0.07425
  29        3PZ         0.03278   0.01408  -0.05868   0.07425  -0.07425
  30 5   H  1S          0.50979   0.50979   0.40657   0.32916  -0.32916
  31        2S         -0.12573  -0.12573  -1.11603  -1.10687   1.10687
  32        3PX        -0.01408   0.03278  -0.05868  -0.07425   0.01933
  33        3PY         0.01408   0.01408   0.05868   0.01933  -0.07425
  34        3PZ         0.03278  -0.01408  -0.05868  -0.07425   0.07425
                          16        17        18        19        20
                        (T2)--V   (A1)--V   (E)--V    (E)--V    (T1)--V
     Eigenvalues --     0.63015   0.73111   1.03681   1.03681   1.46140
   1 1   C  1S          0.00000   0.11179   0.00000  -0.00000   0.00000
   2        2S          0.00000  -1.50101  -0.00000   0.00000   0.00000
   3        3S          0.00000   5.24507   0.00000  -0.00000   0.00000
   4        4PX         0.00000   0.00000   0.00000   0.00000   0.00000
   5        4PY         0.00000   0.00000   0.00000   0.00000   0.00000
   6        4PZ        -0.93575   0.00000   0.00000   0.00000  -0.00000
   7        5PX         0.00000   0.00000   0.00000   0.00000   0.00000
   8        5PY         0.00000   0.00000   0.00000   0.00000   0.00000
   9        5PZ         1.67637   0.00000   0.00000   0.00000  -0.00000
  10        6D 0        0.00000   0.00000   0.00557   0.39431   0.00000
  11        6D+1        0.00000   0.00000   0.00000   0.00000   0.00000
  12        6D-1        0.00000   0.00000   0.00000   0.00000   0.00000
  13        6D+2        0.00000   0.00000   0.39431  -0.00557   0.00000
  14        6D-2        0.13528   0.00000   0.00000   0.00000   0.00000
  15 2   H  1S          0.32916  -0.66447  -0.00000   0.00000   0.00000
  16        2S         -1.10687  -0.86998  -0.00000   0.00000   0.00000
  17        3PX         0.07425  -0.01995   0.25358  -0.15122   0.36343
  18        3PY         0.07425  -0.01995  -0.25775  -0.14400  -0.36343
  19        3PZ         0.01933  -0.01995   0.00417   0.29521   0.00000
  20 3   H  1S          0.32916  -0.66447  -0.00000   0.00000   0.00000
  21        2S         -1.10687  -0.86998  -0.00000   0.00000   0.00000
  22        3PX        -0.07425   0.01995  -0.25358   0.15122  -0.36343
  23        3PY        -0.07425   0.01995   0.25775   0.14400   0.36343
  24        3PZ         0.01933  -0.01995   0.00417   0.29521   0.00000
  25 4   H  1S         -0.32916  -0.66447  -0.00000   0.00000  -0.00000
  26        2S          1.10687  -0.86998  -0.00000   0.00000  -0.00000
  27        3PX        -0.07425  -0.01995   0.25358  -0.15122  -0.36343
  28        3PY         0.07425   0.01995   0.25775   0.14400  -0.36343
  29        3PZ         0.01933   0.01995  -0.00417  -0.29521   0.00000
  30 5   H  1S         -0.32916  -0.66447  -0.00000   0.00000  -0.00000
  31        2S          1.10687  -0.86998  -0.00000   0.00000  -0.00000
  32        3PX         0.07425   0.01995  -0.25358   0.15122   0.36343
  33        3PY        -0.07425  -0.01995  -0.25775  -0.14400   0.36343
  34        3PZ         0.01933   0.01995  -0.00417  -0.29521   0.00000
                          21        22        23        24        25
                        (T1)--V   (T1)--V   (T2)--V   (T2)--V   (T2)--V
     Eigenvalues --     1.46140   1.46140   1.68310   1.68310   1.68310
   1 1   C  1S          0.00000   0.00000   0.00000   0.00000   0.00000
   2        2S          0.00000   0.00000   0.00000   0.00000   0.00000
   3        3S          0.00000   0.00000   0.00000   0.00000   0.00000
   4        4PX        -0.00000   0.00000   0.00000   0.00000  -0.23113
   5        4PY         0.00000  -0.00000  -0.23113   0.00000   0.00000
   6        4PZ         0.00000   0.00000   0.00000  -0.23113   0.00000
   7        5PX        -0.00000   0.00000   0.00000   0.00000   0.89303
   8        5PY         0.00000  -0.00000   0.89303   0.00000   0.00000
   9        5PZ         0.00000   0.00000   0.00000   0.89303   0.00000
  10        6D 0        0.00000   0.00000   0.00000   0.00000   0.00000
  11        6D+1        0.00000   0.00000   0.35702   0.00000   0.00000
  12        6D-1        0.00000   0.00000   0.00000   0.00000   0.35702
  13        6D+2        0.00000   0.00000   0.00000   0.00000   0.00000
  14        6D-2        0.00000   0.00000   0.00000   0.35702   0.00000
  15 2   H  1S          0.00000   0.00000  -0.26349  -0.26349  -0.26349
  16        2S          0.00000   0.00000  -0.07612  -0.07612  -0.07612
  17        3PX         0.00000   0.36343  -0.01785  -0.01785  -0.45972
  18        3PY         0.36343   0.00000  -0.45972  -0.01785  -0.01785
  19        3PZ        -0.36343  -0.36343  -0.01785  -0.45972  -0.01785
  20 3   H  1S         -0.00000  -0.00000   0.26349  -0.26349   0.26349
  21        2S         -0.00000  -0.00000   0.07612  -0.07612   0.07612
  22        3PX         0.00000   0.36343  -0.01785   0.01785  -0.45972
  23        3PY         0.36343   0.00000  -0.45972   0.01785  -0.01785
  24        3PZ         0.36343   0.36343   0.01785  -0.45972   0.01785
  25 4   H  1S          0.00000  -0.00000   0.26349   0.26349  -0.26349
  26        2S          0.00000  -0.00000   0.07612   0.07612  -0.07612
  27        3PX         0.00000  -0.36343   0.01785   0.01785  -0.45972
  28        3PY        -0.36343   0.00000  -0.45972  -0.01785   0.01785
  29        3PZ         0.36343  -0.36343  -0.01785  -0.45972   0.01785
  30 5   H  1S         -0.00000   0.00000  -0.26349   0.26349   0.26349
  31        2S         -0.00000   0.00000  -0.07612   0.07612   0.07612
  32        3PX         0.00000  -0.36343   0.01785  -0.01785  -0.45972
  33        3PY        -0.36343   0.00000  -0.45972   0.01785   0.01785
  34        3PZ        -0.36343   0.36343   0.01785  -0.45972  -0.01785
                          26        27        28        29        30
                        (T2)--V   (T2)--V   (T2)--V   (E)--V    (E)--V
     Eigenvalues --     2.04580   2.04580   2.04580   2.42771   2.42771
   1 1   C  1S          0.00000   0.00000   0.00000  -0.00000   0.00000
   2        2S          0.00000   0.00000   0.00000   0.00000  -0.00000
   3        3S          0.00000   0.00000   0.00000  -0.00000  -0.00000
   4        4PX         0.00000   0.52335   0.00000   0.00000   0.00000
   5        4PY         0.52335   0.00000   0.00000   0.00000   0.00000
   6        4PZ         0.00000   0.00000   0.52335   0.00000   0.00000
   7        5PX         0.00000   0.82339   0.00000   0.00000   0.00000
   8        5PY         0.82339   0.00000   0.00000   0.00000   0.00000
   9        5PZ         0.00000   0.00000   0.82339   0.00000   0.00000
  10        6D 0        0.00000   0.00000   0.00000   0.93341   0.59120
  11        6D+1       -0.40860   0.00000   0.00000   0.00000   0.00000
  12        6D-1        0.00000  -0.40860   0.00000   0.00000   0.00000
  13        6D+2        0.00000   0.00000   0.00000  -0.59120   0.93341
  14        6D-2        0.00000   0.00000  -0.40860   0.00000   0.00000
  15 2   H  1S         -0.11963  -0.11963  -0.11963  -0.00000   0.00000
  16        2S         -0.39921  -0.39921  -0.39921   0.00000   0.00000
  17        3PX         0.38039  -0.22355   0.38039   0.32489  -0.17022
  18        3PY        -0.22355   0.38039   0.38039  -0.01504   0.36647
  19        3PZ         0.38039   0.38039  -0.22355  -0.30986  -0.19626
  20 3   H  1S          0.11963   0.11963  -0.11963  -0.00000   0.00000
  21        2S          0.39921   0.39921  -0.39921   0.00000   0.00000
  22        3PX         0.38039  -0.22355  -0.38039  -0.32489   0.17022
  23        3PY        -0.22355   0.38039  -0.38039   0.01504  -0.36647
  24        3PZ        -0.38039  -0.38039  -0.22355  -0.30986  -0.19626
  25 4   H  1S          0.11963  -0.11963   0.11963  -0.00000   0.00000
  26        2S          0.39921  -0.39921   0.39921   0.00000   0.00000
  27        3PX        -0.38039  -0.22355  -0.38039   0.32489  -0.17022
  28        3PY        -0.22355  -0.38039   0.38039   0.01504  -0.36647
  29        3PZ         0.38039  -0.38039  -0.22355   0.30986   0.19626
  30 5   H  1S         -0.11963   0.11963   0.11963  -0.00000   0.00000
  31        2S         -0.39921   0.39921   0.39921   0.00000   0.00000
  32        3PX        -0.38039  -0.22355   0.38039  -0.32489   0.17022
  33        3PY        -0.22355  -0.38039  -0.38039  -0.01504   0.36647
  34        3PZ        -0.38039   0.38039  -0.22355   0.30986   0.19626
                          31        32        33        34
                        (A1)--V   (T2)--V   (T2)--V   (T2)--V
     Eigenvalues --     2.49013   2.80920   2.80920   2.80920
   1 1   C  1S         -0.30005   0.00000   0.00000   0.00000
   2        2S          1.74606   0.00000   0.00000   0.00000
   3        3S          1.17045   0.00000   0.00000   0.00000
   4        4PX         0.00000   0.00000   1.04500   0.00000
   5        4PY         0.00000   0.00000   0.00000   1.04500
   6        4PZ         0.00000   1.04500   0.00000   0.00000
   7        5PX         0.00000   0.00000   0.61359   0.00000
   8        5PY         0.00000   0.00000   0.00000   0.61359
   9        5PZ         0.00000   0.61359   0.00000   0.00000
  10        6D 0       -0.00000   0.00000   0.00000   0.00000
  11        6D+1        0.00000   0.00000   0.00000   1.35445
  12        6D-1        0.00000   0.00000   1.35445   0.00000
  13        6D+2        0.00000   0.00000   0.00000   0.00000
  14        6D-2        0.00000   1.35445   0.00000   0.00000
  15 2   H  1S         -0.53951  -0.63829  -0.63829  -0.63829
  16        2S         -0.30983  -0.27039  -0.27039  -0.27039
  17        3PX         0.45019   0.38557   0.44398   0.38557
  18        3PY         0.45019   0.38557   0.38557   0.44398
  19        3PZ         0.45019   0.44398   0.38557   0.38557
  20 3   H  1S         -0.53951  -0.63829   0.63829   0.63829
  21        2S         -0.30983  -0.27039   0.27039   0.27039
  22        3PX        -0.45019  -0.38557   0.44398   0.38557
  23        3PY        -0.45019  -0.38557   0.38557   0.44398
  24        3PZ         0.45019   0.44398  -0.38557  -0.38557
  25 4   H  1S         -0.53951   0.63829  -0.63829   0.63829
  26        2S         -0.30983   0.27039  -0.27039   0.27039
  27        3PX         0.45019  -0.38557   0.44398  -0.38557
  28        3PY        -0.45019   0.38557  -0.38557   0.44398
  29        3PZ        -0.45019   0.44398  -0.38557   0.38557
  30 5   H  1S         -0.53951   0.63829   0.63829  -0.63829
  31        2S         -0.30983   0.27039   0.27039  -0.27039
  32        3PX        -0.45019   0.38557   0.44398  -0.38557
  33        3PY         0.45019  -0.38557  -0.38557   0.44398
  34        3PZ        -0.45019   0.44398   0.38557  -0.38557
     Density Matrix:
                           1         2         3         4         5
   1 1   C  1S          2.07609
   2        2S         -0.14075   0.48749
   3        3S         -0.14549   0.11995   0.03555
   4        4PX         0.00000   0.00000   0.00000   0.38998
   5        4PY         0.00000   0.00000   0.00000   0.00000   0.38998
   6        4PZ         0.00000   0.00000   0.00000   0.00000   0.00000
   7        5PX         0.00000   0.00000   0.00000   0.16631   0.00000
   8        5PY         0.00000   0.00000   0.00000   0.00000   0.16631
   9        5PZ         0.00000   0.00000   0.00000   0.00000   0.00000
  10        6D 0       -0.00000   0.00000   0.00000   0.00000   0.00000
  11        6D+1        0.00000   0.00000   0.00000   0.00000   0.01411
  12        6D-1        0.00000   0.00000   0.00000   0.01411   0.00000
  13        6D+2        0.00000   0.00000   0.00000   0.00000   0.00000
  14        6D-2        0.00000   0.00000   0.00000   0.00000   0.00000
  15 2   H  1S         -0.09518   0.17152   0.04469   0.19614   0.19614
  16        2S         -0.00313   0.03716   0.00873   0.08640   0.08640
  17        3PX         0.00929  -0.01150  -0.00315   0.00493  -0.00740
  18        3PY         0.00929  -0.01150  -0.00315  -0.00740   0.00493
  19        3PZ         0.00929  -0.01150  -0.00315  -0.00740  -0.00740
  20 3   H  1S         -0.09518   0.17152   0.04469  -0.19614  -0.19614
  21        2S         -0.00313   0.03716   0.00873  -0.08640  -0.08640
  22        3PX        -0.00929   0.01150   0.00315   0.00493  -0.00740
  23        3PY        -0.00929   0.01150   0.00315  -0.00740   0.00493
  24        3PZ         0.00929  -0.01150  -0.00315   0.00740   0.00740
  25 4   H  1S         -0.09518   0.17152   0.04469   0.19614  -0.19614
  26        2S         -0.00313   0.03716   0.00873   0.08640  -0.08640
  27        3PX         0.00929  -0.01150  -0.00315   0.00493   0.00740
  28        3PY        -0.00929   0.01150   0.00315   0.00740   0.00493
  29        3PZ        -0.00929   0.01150   0.00315   0.00740  -0.00740
  30 5   H  1S         -0.09518   0.17152   0.04469  -0.19614   0.19614
  31        2S         -0.00313   0.03716   0.00873  -0.08640   0.08640
  32        3PX        -0.00929   0.01150   0.00315   0.00493   0.00740
  33        3PY         0.00929  -0.01150  -0.00315   0.00740   0.00493
  34        3PZ        -0.00929   0.01150   0.00315  -0.00740   0.00740
                           6         7         8         9        10
   6        4PZ         0.38998
   7        5PX         0.00000   0.07093
   8        5PY         0.00000   0.00000   0.07093
   9        5PZ         0.16631   0.00000   0.00000   0.07093
  10        6D 0        0.00000   0.00000   0.00000   0.00000   0.00000
  11        6D+1        0.00000   0.00000   0.00602   0.00000   0.00000
  12        6D-1        0.00000   0.00602   0.00000   0.00000   0.00000
  13        6D+2        0.00000   0.00000   0.00000   0.00000   0.00000
  14        6D-2        0.01411   0.00000   0.00000   0.00602   0.00000
  15 2   H  1S          0.19614   0.08365   0.08365   0.08365   0.00000
  16        2S          0.08640   0.03685   0.03685   0.03685   0.00000
  17        3PX        -0.00740   0.00210  -0.00316  -0.00316  -0.00000
  18        3PY        -0.00740  -0.00316   0.00210  -0.00316  -0.00000
  19        3PZ         0.00493  -0.00316  -0.00316   0.00210  -0.00000
  20 3   H  1S          0.19614  -0.08365  -0.08365   0.08365   0.00000
  21        2S          0.08640  -0.03685  -0.03685   0.03685   0.00000
  22        3PX         0.00740   0.00210  -0.00316   0.00316   0.00000
  23        3PY         0.00740  -0.00316   0.00210   0.00316   0.00000
  24        3PZ         0.00493   0.00316   0.00316   0.00210  -0.00000
  25 4   H  1S         -0.19614   0.08365  -0.08365  -0.08365   0.00000
  26        2S         -0.08640   0.03685  -0.03685  -0.03685   0.00000
  27        3PX         0.00740   0.00210   0.00316   0.00316  -0.00000
  28        3PY        -0.00740   0.00316   0.00210  -0.00316   0.00000
  29        3PZ         0.00493   0.00316  -0.00316   0.00210   0.00000
  30 5   H  1S         -0.19614  -0.08365   0.08365  -0.08365   0.00000
  31        2S         -0.08640  -0.03685   0.03685  -0.03685   0.00000
  32        3PX        -0.00740   0.00210   0.00316  -0.00316   0.00000
  33        3PY         0.00740   0.00316   0.00210   0.00316  -0.00000
  34        3PZ         0.00493  -0.00316   0.00316   0.00210   0.00000
                          11        12        13        14        15
  11        6D+1        0.00051
  12        6D-1        0.00000   0.00051
  13        6D+2        0.00000   0.00000   0.00000
  14        6D-2        0.00000   0.00000   0.00000   0.00051
  15 2   H  1S          0.00710   0.00710   0.00000   0.00710   0.35732
  16        2S          0.00313   0.00313   0.00000   0.00313   0.14328
  17        3PX        -0.00027   0.00018  -0.00000  -0.00027  -0.00915
  18        3PY         0.00018  -0.00027  -0.00000  -0.00027  -0.00915
  19        3PZ        -0.00027  -0.00027  -0.00000   0.00018  -0.00915
  20 3   H  1S         -0.00710  -0.00710   0.00000   0.00710  -0.03727
  21        2S         -0.00313  -0.00313   0.00000   0.00313  -0.03055
  22        3PX        -0.00027   0.00018   0.00000   0.00027   0.00666
  23        3PY         0.00018  -0.00027   0.00000   0.00027   0.00666
  24        3PZ         0.00027   0.00027  -0.00000   0.00018   0.00575
  25 4   H  1S         -0.00710   0.00710   0.00000  -0.00710  -0.03727
  26        2S         -0.00313   0.00313   0.00000  -0.00313  -0.03055
  27        3PX         0.00027   0.00018  -0.00000   0.00027   0.00575
  28        3PY         0.00018   0.00027   0.00000  -0.00027   0.00666
  29        3PZ        -0.00027   0.00027   0.00000   0.00018   0.00666
  30 5   H  1S          0.00710  -0.00710   0.00000  -0.00710  -0.03727
  31        2S          0.00313  -0.00313   0.00000  -0.00313  -0.03055
  32        3PX         0.00027   0.00018   0.00000  -0.00027   0.00666
  33        3PY         0.00018   0.00027  -0.00000   0.00027   0.00575
  34        3PZ         0.00027  -0.00027   0.00000   0.00018   0.00666
                          16        17        18        19        20
  16        2S          0.06029
  17        3PX        -0.00304   0.00063
  18        3PY        -0.00304   0.00024   0.00063
  19        3PZ        -0.00304   0.00024   0.00024   0.00063
  20 3   H  1S         -0.03055  -0.00666  -0.00666   0.00575   0.35732
  21        2S         -0.01628  -0.00195  -0.00195   0.00352   0.14328
  22        3PX         0.00195  -0.00023  -0.00062  -0.00015   0.00915
  23        3PY         0.00195  -0.00062  -0.00023  -0.00015   0.00915
  24        3PZ         0.00352   0.00015   0.00015   0.00007  -0.00915
  25 4   H  1S         -0.03055   0.00575  -0.00666  -0.00666  -0.03727
  26        2S         -0.01628   0.00352  -0.00195  -0.00195  -0.03055
  27        3PX         0.00352   0.00007   0.00015   0.00015  -0.00666
  28        3PY         0.00195  -0.00015  -0.00023  -0.00062  -0.00575
  29        3PZ         0.00195  -0.00015  -0.00062  -0.00023   0.00666
  30 5   H  1S         -0.03055  -0.00666   0.00575  -0.00666  -0.03727
  31        2S         -0.01628  -0.00195   0.00352  -0.00195  -0.03055
  32        3PX         0.00195  -0.00023  -0.00015  -0.00062  -0.00575
  33        3PY         0.00352   0.00015   0.00007   0.00015  -0.00666
  34        3PZ         0.00195  -0.00062  -0.00015  -0.00023   0.00666
                          21        22        23        24        25
  21        2S          0.06029
  22        3PX         0.00304   0.00063
  23        3PY         0.00304   0.00024   0.00063
  24        3PZ        -0.00304  -0.00024  -0.00024   0.00063
  25 4   H  1S         -0.03055   0.00666  -0.00575  -0.00666   0.35732
  26        2S         -0.01628   0.00195  -0.00352  -0.00195   0.14328
  27        3PX        -0.00195  -0.00023  -0.00015   0.00062  -0.00915
  28        3PY        -0.00352   0.00015   0.00007  -0.00015   0.00915
  29        3PZ         0.00195   0.00062   0.00015  -0.00023   0.00915
  30 5   H  1S         -0.03055  -0.00575   0.00666  -0.00666  -0.03727
  31        2S         -0.01628  -0.00352   0.00195  -0.00195  -0.03055
  32        3PX        -0.00352   0.00007   0.00015  -0.00015   0.00666
  33        3PY        -0.00195  -0.00015  -0.00023   0.00062  -0.00666
  34        3PZ         0.00195   0.00015   0.00062  -0.00023  -0.00575
                          26        27        28        29        30
  26        2S          0.06029
  27        3PX        -0.00304   0.00063
  28        3PY         0.00304  -0.00024   0.00063
  29        3PZ         0.00304  -0.00024   0.00024   0.00063
  30 5   H  1S         -0.03055  -0.00666   0.00666  -0.00575   0.35732
  31        2S         -0.01628  -0.00195   0.00195  -0.00352   0.14328
  32        3PX         0.00195  -0.00023   0.00062   0.00015   0.00915
  33        3PY        -0.00195   0.00062  -0.00023  -0.00015  -0.00915
  34        3PZ        -0.00352  -0.00015   0.00015   0.00007   0.00915
                          31        32        33        34
  31        2S          0.06029
  32        3PX         0.00304   0.00063
  33        3PY        -0.00304  -0.00024   0.00063
  34        3PZ         0.00304   0.00024  -0.00024   0.00063
    Full Mulliken population analysis:
                           1         2         3         4         5
   1 1   C  1S          2.07609
   2        2S         -0.04582   0.48749
   3        3S         -0.02208   0.09578   0.03555
   4        4PX         0.00000   0.00000   0.00000   0.38998
   5        4PY         0.00000   0.00000   0.00000   0.00000   0.38998
   6        4PZ         0.00000   0.00000   0.00000   0.00000   0.00000
   7        5PX         0.00000   0.00000   0.00000   0.08846   0.00000
   8        5PY         0.00000   0.00000   0.00000   0.00000   0.08846
   9        5PZ         0.00000   0.00000   0.00000   0.00000   0.00000
  10        6D 0        0.00000   0.00000   0.00000   0.00000   0.00000
  11        6D+1        0.00000   0.00000   0.00000   0.00000   0.00000
  12        6D-1        0.00000   0.00000   0.00000   0.00000   0.00000
  13        6D+2        0.00000   0.00000   0.00000   0.00000   0.00000
  14        6D-2        0.00000   0.00000   0.00000   0.00000   0.00000
  15 2   H  1S         -0.00457   0.06168   0.02009   0.04357   0.04357
  16        2S         -0.00027   0.01917   0.00662   0.01042   0.01042
  17        3PX        -0.00042   0.00236   0.00034  -0.00002   0.00149
  18        3PY        -0.00042   0.00236   0.00034   0.00149  -0.00002
  19        3PZ        -0.00042   0.00236   0.00034   0.00149   0.00149
  20 3   H  1S         -0.00457   0.06168   0.02009   0.04357   0.04357
  21        2S         -0.00027   0.01917   0.00662   0.01042   0.01042
  22        3PX        -0.00042   0.00236   0.00034  -0.00002   0.00149
  23        3PY        -0.00042   0.00236   0.00034   0.00149  -0.00002
  24        3PZ        -0.00042   0.00236   0.00034   0.00149   0.00149
  25 4   H  1S         -0.00457   0.06168   0.02009   0.04357   0.04357
  26        2S         -0.00027   0.01917   0.00662   0.01042   0.01042
  27        3PX        -0.00042   0.00236   0.00034  -0.00002   0.00149
  28        3PY        -0.00042   0.00236   0.00034   0.00149  -0.00002
  29        3PZ        -0.00042   0.00236   0.00034   0.00149   0.00149
  30 5   H  1S         -0.00457   0.06168   0.02009   0.04357   0.04357
  31        2S         -0.00027   0.01917   0.00662   0.01042   0.01042
  32        3PX        -0.00042   0.00236   0.00034  -0.00002   0.00149
  33        3PY        -0.00042   0.00236   0.00034   0.00149  -0.00002
  34        3PZ        -0.00042   0.00236   0.00034   0.00149   0.00149
                           6         7         8         9        10
   6        4PZ         0.38998
   7        5PX         0.00000   0.07093
   8        5PY         0.00000   0.00000   0.07093
   9        5PZ         0.08846   0.00000   0.00000   0.07093
  10        6D 0        0.00000   0.00000   0.00000   0.00000   0.00000
  11        6D+1        0.00000   0.00000   0.00000   0.00000   0.00000
  12        6D-1        0.00000   0.00000   0.00000   0.00000   0.00000
  13        6D+2        0.00000   0.00000   0.00000   0.00000   0.00000
  14        6D-2        0.00000   0.00000   0.00000   0.00000   0.00000
  15 2   H  1S          0.04357   0.02728   0.02728   0.02728   0.00000
  16        2S          0.01042   0.01137   0.01137   0.01137  -0.00000
  17        3PX         0.00149   0.00035   0.00031   0.00031   0.00000
  18        3PY         0.00149   0.00031   0.00035   0.00031   0.00000
  19        3PZ        -0.00002   0.00031   0.00031   0.00035  -0.00000
  20 3   H  1S          0.04357   0.02728   0.02728   0.02728   0.00000
  21        2S          0.01042   0.01137   0.01137   0.01137   0.00000
  22        3PX         0.00149   0.00035   0.00031   0.00031   0.00000
  23        3PY         0.00149   0.00031   0.00035   0.00031   0.00000
  24        3PZ        -0.00002   0.00031   0.00031   0.00035  -0.00000
  25 4   H  1S          0.04357   0.02728   0.02728   0.02728   0.00000
  26        2S          0.01042   0.01137   0.01137   0.01137   0.00000
  27        3PX         0.00149   0.00035   0.00031   0.00031   0.00000
  28        3PY         0.00149   0.00031   0.00035   0.00031   0.00000
  29        3PZ        -0.00002   0.00031   0.00031   0.00035  -0.00000
  30 5   H  1S          0.04357   0.02728   0.02728   0.02728   0.00000
  31        2S          0.01042   0.01137   0.01137   0.01137   0.00000
  32        3PX         0.00149   0.00035   0.00031   0.00031   0.00000
  33        3PY         0.00149   0.00031   0.00035   0.00031   0.00000
  34        3PZ        -0.00002   0.00031   0.00031   0.00035  -0.00000
                          11        12        13        14        15
  11        6D+1        0.00051
  12        6D-1        0.00000   0.00051
  13        6D+2        0.00000   0.00000   0.00000
  14        6D-2        0.00000   0.00000   0.00000   0.00051
  15 2   H  1S          0.00122   0.00122   0.00000   0.00122   0.35732
  16        2S          0.00009   0.00009   0.00000   0.00009   0.09811
  17        3PX         0.00001  -0.00004  -0.00000   0.00001   0.00000
  18        3PY        -0.00004   0.00001   0.00000   0.00001   0.00000
  19        3PZ         0.00001   0.00001  -0.00000  -0.00004   0.00000
  20 3   H  1S          0.00122   0.00122  -0.00000   0.00122  -0.00200
  21        2S          0.00009   0.00009   0.00000   0.00009  -0.00670
  22        3PX         0.00001  -0.00004  -0.00000   0.00001   0.00029
  23        3PY        -0.00004   0.00001   0.00000   0.00001   0.00029
  24        3PZ         0.00001   0.00001  -0.00000  -0.00004  -0.00000
  25 4   H  1S          0.00122   0.00122   0.00000   0.00122  -0.00200
  26        2S          0.00009   0.00009   0.00000   0.00009  -0.00670
  27        3PX         0.00001  -0.00004  -0.00000   0.00001  -0.00000
  28        3PY        -0.00004   0.00001   0.00000   0.00001   0.00029
  29        3PZ         0.00001   0.00001   0.00000  -0.00004   0.00029
  30 5   H  1S          0.00122   0.00122   0.00000   0.00122  -0.00200
  31        2S          0.00009   0.00009   0.00000   0.00009  -0.00670
  32        3PX         0.00001  -0.00004  -0.00000   0.00001   0.00029
  33        3PY        -0.00004   0.00001   0.00000   0.00001  -0.00000
  34        3PZ         0.00001   0.00001   0.00000  -0.00004   0.00029
                          16        17        18        19        20
  16        2S          0.06029
  17        3PX         0.00000   0.00063
  18        3PY         0.00000  -0.00000   0.00063
  19        3PZ         0.00000  -0.00000   0.00000   0.00063
  20 3   H  1S         -0.00670   0.00029   0.00029  -0.00000   0.35732
  21        2S         -0.00800   0.00018   0.00018  -0.00000   0.09811
  22        3PX         0.00018   0.00001   0.00003   0.00000   0.00000
  23        3PY         0.00018   0.00003   0.00001   0.00000   0.00000
  24        3PZ        -0.00000  -0.00000  -0.00000   0.00000   0.00000
  25 4   H  1S         -0.00670   0.00000   0.00029   0.00029  -0.00200
  26        2S         -0.00800   0.00000   0.00018   0.00018  -0.00670
  27        3PX        -0.00000   0.00000   0.00000   0.00000   0.00029
  28        3PY         0.00018  -0.00000   0.00001   0.00003   0.00000
  29        3PZ         0.00018  -0.00000   0.00003   0.00001   0.00029
  30 5   H  1S         -0.00670   0.00029  -0.00000   0.00029  -0.00200
  31        2S         -0.00800   0.00018  -0.00000   0.00018  -0.00670
  32        3PX         0.00018   0.00001   0.00000   0.00003  -0.00000
  33        3PY        -0.00000  -0.00000   0.00000  -0.00000   0.00029
  34        3PZ         0.00018   0.00003   0.00000   0.00001   0.00029
                          21        22        23        24        25
  21        2S          0.06029
  22        3PX         0.00000   0.00063
  23        3PY         0.00000  -0.00000   0.00063
  24        3PZ         0.00000   0.00000  -0.00000   0.00063
  25 4   H  1S         -0.00670   0.00029   0.00000   0.00029   0.35732
  26        2S         -0.00800   0.00018   0.00000   0.00018   0.09811
  27        3PX         0.00018   0.00001  -0.00000   0.00003   0.00000
  28        3PY         0.00000   0.00000   0.00000   0.00000   0.00000
  29        3PZ         0.00018   0.00003  -0.00000   0.00001   0.00000
  30 5   H  1S         -0.00670   0.00000   0.00029   0.00029  -0.00200
  31        2S         -0.00800   0.00000   0.00018   0.00018  -0.00670
  32        3PX        -0.00000   0.00000   0.00000   0.00000   0.00029
  33        3PY         0.00018  -0.00000   0.00001   0.00003   0.00029
  34        3PZ         0.00018  -0.00000   0.00003   0.00001  -0.00000
                          26        27        28        29        30
  26        2S          0.06029
  27        3PX         0.00000   0.00063
  28        3PY         0.00000  -0.00000   0.00063
  29        3PZ         0.00000  -0.00000  -0.00000   0.00063
  30 5   H  1S         -0.00670   0.00029   0.00029  -0.00000   0.35732
  31        2S         -0.00800   0.00018   0.00018  -0.00000   0.09811
  32        3PX         0.00018   0.00001   0.00003   0.00000   0.00000
  33        3PY         0.00018   0.00003   0.00001  -0.00000   0.00000
  34        3PZ        -0.00000  -0.00000   0.00000   0.00000   0.00000
                          31        32        33        34
  31        2S          0.06029
  32        3PX         0.00000   0.00063
  33        3PY         0.00000   0.00000   0.00063
  34        3PZ         0.00000   0.00000   0.00000   0.00063
     Gross orbital populations:
                           1
   1 1   C  1S          1.98383
   2        2S          0.88922
   3        3S          0.22017
   4        4PX         0.70618
   5        4PY         0.70618
   6        4PZ         0.70618
   7        5PX         0.31785
   8        5PY         0.31785
   9        5PZ         0.31785
  10        6D 0        0.00000
  11        6D+1        0.00566
  12        6D-1        0.00566
  13        6D+2       -0.00000
  14        6D-2        0.00566
  15 2   H  1S          0.72445
  16        2S          0.20652
  17        3PX         0.00782
  18        3PY         0.00782
  19        3PZ         0.00782
  20 3   H  1S          0.72445
  21        2S          0.20652
  22        3PX         0.00782
  23        3PY         0.00782
  24        3PZ         0.00782
  25 4   H  1S          0.72445
  26        2S          0.20652
  27        3PX         0.00782
  28        3PY         0.00782
  29        3PZ         0.00782
  30 5   H  1S          0.72445
  31        2S          0.20652
  32        3PX         0.00782
  33        3PY         0.00782
  34        3PZ         0.00782
          Condensed to atoms (all electrons):
               1          2          3          4          5
     1  C    4.569895   0.403100   0.403100   0.403100   0.403100
     2  H    0.403100   0.615737  -0.021470  -0.021470  -0.021470
     3  H    0.403100  -0.021470   0.615737  -0.021470  -0.021470
     4  H    0.403100  -0.021470  -0.021470   0.615737  -0.021470
     5  H    0.403100  -0.021470  -0.021470  -0.021470   0.615737
 Mulliken charges:
               1
     1  C   -0.182294
     2  H    0.045574
     3  H    0.045574
     4  H    0.045574
     5  H    0.045574
 Sum of Mulliken charges =  -0.00000
 Mulliken charges with hydrogens summed into heavy atoms:
               1
     1  C   -0.000000
 Electronic spatial extent (au):  <R**2>=             36.0633
 Charge=              0.0000 electrons
 Dipole moment (field-independent basis, Debye):
    X=             -0.0000    Y=             -0.0000    Z=              0.0000  Tot=              0.0000
 Quadrupole moment (field-independent basis, Debye-Ang):
   XX=             -8.3343   YY=             -8.3343   ZZ=             -8.3343
   XY=              0.0000   XZ=              0.0000   YZ=             -0.0000
 Traceless Quadrupole moment (field-independent basis, Debye-Ang):
   XX=              0.0000   YY=             -0.0000   ZZ=             -0.0000
   XY=              0.0000   XZ=              0.0000   YZ=             -0.0000
 Octapole moment (field-independent basis, Debye-Ang**2):
  XXX=             -0.0000  YYY=             -0.0000  ZZZ=              0.0000  XYY=             -0.0000
  XXY=             -0.0000  XXZ=              0.0000  XZZ=             -0.0000  YZZ=              0.0000
  YYZ=             -0.0000  XYZ=              0.6407
 Hexadecapole moment (field-independent basis, Debye-Ang**3):
 XXXX=            -16.4345 YYYY=            -16.4345 ZZZZ=            -16.4345 XXXY=              0.0000
 XXXZ=              0.0000 YYYX=              0.0000 YYYZ=              0.0000 ZZZX=              0.0000
 ZZZY=              0.0000 XXYY=             -5.0059 XXZZ=             -5.0059 YYZZ=             -5.0059
 XXYZ=              0.0000 YYXZ=             -0.0000 ZZXY=              0.0000
 N-N= 1.324051766309D+01 E-N=-1.191949552444D+02  KE= 3.978095145022D+01
 Symmetry A    KE= 3.413197692150D+01
 Symmetry B1   KE= 1.882991509575D+00
 Symmetry B2   KE= 1.882991509575D+00
 Symmetry B3   KE= 1.882991509575D+00
 Orbital energies and kinetic energies (alpha):
                                 1                 2
   1         (A1)--O          -9.885802         15.722198
   2         (A1)--O          -0.612616          1.343790
   3         (T2)--O          -0.340730          0.941496
   4         (T2)--O          -0.340730          0.941496
   5         (T2)--O          -0.340730          0.941496
   6         (A1)--V           0.053152          0.725497
   7         (T2)--V           0.118667          0.754538
   8         (T2)--V           0.118667          0.754538
   9         (T2)--V           0.118667          0.754538
  10         (T2)--V           0.388770          1.134596
  11         (T2)--V           0.388770          1.134596
  12         (T2)--V           0.388770          1.134596
  13         (A1)--V           0.600342          2.703380
  14         (T2)--V           0.630150          2.196762
  15         (T2)--V           0.630150          2.196762
  16         (T2)--V           0.630150          2.196762
  17         (A1)--V           0.731105          1.609759
  18         (E)--V            1.036809          1.893913
  19         (E)--V            1.036809          1.893913
  20         (T1)--V           1.461404          2.173785
  21         (T1)--V           1.461404          2.173785
  22         (T1)--V           1.461404          2.173785
  23         (T2)--V           1.683103          2.576577
  24         (T2)--V           1.683103          2.576577
  25         (T2)--V           1.683103          2.576577
  26         (T2)--V           2.045800          3.095597
  27         (T2)--V           2.045800          3.095597
  28         (T2)--V           2.045800          3.095597
  29         (E)--V            2.427713          3.532220
  30         (E)--V            2.427713          3.532220
  31         (A1)--V           2.490134          4.596469
  32         (T2)--V           2.809201          4.583295
  33         (T2)--V           2.809201          4.583295
  34         (T2)--V           2.809201          4.583295
 Total kinetic energy from orbitals= 3.978095145022D+01
 No NMR shielding tensors so no spin-rotation constants.
 Leave Link  601 at Mon Jan 22 15:01:28 2018, MaxMem=   536870912 cpu:         0.1
 (Enter /home/chemsoft/gaussian/g09e01/g09/l9999.exe)

 This type of calculation cannot be archived.

 Writing a WFNX file to "methane.df-pbesvp.wfx"


 MOST BUREAUCRACIES FUNCTION LIKE A SEPTIC TANK.
 THE LARGE CHUNKS RISE TO THE TOP.
 Job cpu time:       0 days  0 hours  0 minutes  1.6 seconds.
 File lengths (MBytes):  RWF=      5 Int=      0 D2E=      0 Chk=      1 Scr=      1
 Normal termination of Gaussian 09 at Mon Jan 22 15:01:28 2018.
