 Entering Gaussian System, Link 0=g09
 Input=methane.df-pbesvp.gjf
 Output=methane.df-pbesvp.log
 Initial command:
 /home/chemsoft/gaussian/g09e01/g09/l1.exe "/scr/martin/g09job.inter1516600427/Gau-8125.inp" -scrdir="/scr/martin/g09job.inter1516600427/"
 Entering Link 1 = /home/chemsoft/gaussian/g09e01/g09/l1.exe PID=      8126.
  
 Copyright (c) 1988,1990,1992,1993,1995,1998,2003,2009,2015,
            Gaussian, Inc.  All Rights Reserved.
  
 This is part of the Gaussian(R) 09 program.  It is based on
 the Gaussian(R) 03 system (copyright 2003, Gaussian, Inc.),
 the Gaussian(R) 98 system (copyright 1998, Gaussian, Inc.),
 the Gaussian(R) 94 system (copyright 1995, Gaussian, Inc.),
 the Gaussian 92(TM) system (copyright 1992, Gaussian, Inc.),
 the Gaussian 90(TM) system (copyright 1990, Gaussian, Inc.),
 the Gaussian 88(TM) system (copyright 1988, Gaussian, Inc.),
 the Gaussian 86(TM) system (copyright 1986, Carnegie Mellon
 University), and the Gaussian 82(TM) system (copyright 1983,
 Carnegie Mellon University). Gaussian is a federally registered
 trademark of Gaussian, Inc.
  
 This software contains proprietary and confidential information,
 including trade secrets, belonging to Gaussian, Inc.
  
 This software is provided under written license and may be
 used, copied, transmitted, or stored only in accord with that
 written license.
  
 The following legend is applicable only to US Government
 contracts under FAR:
  
                    RESTRICTED RIGHTS LEGEND
  
 Use, reproduction and disclosure by the US Government is
 subject to restrictions as set forth in subparagraphs (a)
 and (c) of the Commercial Computer Software - Restricted
 Rights clause in FAR 52.227-19.
  
 Gaussian, Inc.
 340 Quinnipiac St., Bldg. 40, Wallingford CT 06492
  
  
 ---------------------------------------------------------------
 Warning -- This program may not be used in any manner that
 competes with the business of Gaussian, Inc. or will provide
 assistance to any competitor of Gaussian, Inc.  The licensee
 of this program is prohibited from giving any competitor of
 Gaussian, Inc. access to this program.  By using this program,
 the user acknowledges that Gaussian, Inc. is engaged in the
 business of creating and licensing software in the field of
 computational chemistry and represents and warrants to the
 licensee that it is not a competitor of Gaussian, Inc. and that
 it will not use this program in any manner prohibited above.
 ---------------------------------------------------------------
  

 Cite this work as:
 Gaussian 09, Revision E.01,
 M. J. Frisch, G. W. Trucks, H. B. Schlegel, G. E. Scuseria, 
 M. A. Robb, J. R. Cheeseman, G. Scalmani, V. Barone, B. Mennucci, 
 G. A. Petersson, H. Nakatsuji, M. Caricato, X. Li, H. P. Hratchian, 
 A. F. Izmaylov, J. Bloino, G. Zheng, J. L. Sonnenberg, M. Hada, 
 M. Ehara, K. Toyota, R. Fukuda, J. Hasegawa, M. Ishida, T. Nakajima, 
 Y. Honda, O. Kitao, H. Nakai, T. Vreven, J. A. Montgomery, Jr., 
 J. E. Peralta, F. Ogliaro, M. Bearpark, J. J. Heyd, E. Brothers, 
 K. N. Kudin, V. N. Staroverov, T. Keith, R. Kobayashi, J. Normand, 
 K. Raghavachari, A. Rendell, J. C. Burant, S. S. Iyengar, J. Tomasi, 
 M. Cossi, N. Rega, J. M. Millam, M. Klene, J. E. Knox, J. B. Cross, 
 V. Bakken, C. Adamo, J. Jaramillo, R. Gomperts, R. E. Stratmann, 
 O. Yazyev, A. J. Austin, R. Cammi, C. Pomelli, J. W. Ochterski, 
 R. L. Martin, K. Morokuma, V. G. Zakrzewski, G. A. Voth, 
 P. Salvador, J. J. Dannenberg, S. Dapprich, A. D. Daniels, 
 O. Farkas, J. B. Foresman, J. V. Ortiz, J. Cioslowski, 
 and D. J. Fox, Gaussian, Inc., Wallingford CT, 2013.
 
 ******************************************
 Gaussian 09:  ES64L-G09RevE.01 30-Nov-2015
                22-Jan-2018 
 ******************************************
 %chk=methane.df-pbesvp.chk
 %nproc=2
 Will use up to    2 processors via shared memory.
 %mem=8000MB
 ----------------------------------------------------------------------
 #P PBEPBE/def2SVP/W06 DenFit opt (MaxCycle=100) scf=(xqc, MaxConventio
 nalCycle=500) int = (ultrafinegrid) gfinput gfoldprint iop(6/7=3) symm
 etry=loose
 ----------------------------------------------------------------------
 1/6=100,14=-1,18=20,19=15,26=4,38=1/1,3;
 2/9=110,12=2,17=4,18=3,40=1/2;
 3/5=43,7=101,11=2,16=1,24=11,25=1,30=1,71=1,74=1009,75=-5,82=40/1,2,3;
 4//1;
 5/5=2,8=3,13=1,38=5,85=500/2,8;
 6/7=3,8=2,9=2,10=2,28=1/1;
 7//1,2,3,16;
 1/6=100,14=-1,18=20,19=15,26=4/3(2);
 2/9=110/2;
 99//99;
 2/9=110/2;
 3/5=43,7=101,11=2,16=1,25=1,30=1,71=1,74=1009,75=-5,82=40/1,2,3;
 4/5=5,16=3,69=1/1;
 5/5=2,8=3,13=1,38=5,85=500/2,8;
 7//1,2,3,16;
 1/6=100,14=-1,18=20,19=15,26=4/3(-5);
 2/9=110/2;
 6/7=3,8=2,9=2,10=2,19=2,28=1/1;
 99/9=1/99;
 Leave Link    1 at Mon Jan 22 14:53:47 2018, MaxMem=  1048576000 cpu:         0.2
 (Enter /home/chemsoft/gaussian/g09e01/g09/l101.exe)
 -----------------------
 Methane DF-PBE/def2-SVP
 -----------------------
 Symbolic Z-matrix:
 Charge =  0 Multiplicity = 1
 C                     0.        0.        0. 
 H                     0.6304    0.6304    0.6304 
 H                     0.6304   -0.6304   -0.6304 
 H                    -0.6304    0.6304   -0.6304 
 H                    -0.6304   -0.6304    0.6304 
 
 NAtoms=      5 NQM=        5 NQMF=       0 NMMI=      0 NMMIF=      0
                NMic=       0 NMicF=      0.
                    Isotopes and Nuclear Properties:
 (Nuclear quadrupole moments (NQMom) in fm**2, nuclear magnetic moments (NMagM)
  in nuclear magnetons)

  Atom         1           2           3           4           5
 IAtWgt=          12           1           1           1           1
 AtmWgt=  12.0000000   1.0078250   1.0078250   1.0078250   1.0078250
 NucSpn=           0           1           1           1           1
 AtZEff=   0.0000000   0.0000000   0.0000000   0.0000000   0.0000000
 NQMom=    0.0000000   0.0000000   0.0000000   0.0000000   0.0000000
 NMagM=    0.0000000   2.7928460   2.7928460   2.7928460   2.7928460
 AtZNuc=   6.0000000   1.0000000   1.0000000   1.0000000   1.0000000
 Leave Link  101 at Mon Jan 22 14:53:47 2018, MaxMem=  1048576000 cpu:         0.8
 (Enter /home/chemsoft/gaussian/g09e01/g09/l103.exe)

 GradGradGradGradGradGradGradGradGradGradGradGradGradGradGradGradGradGrad
 Berny optimization.
 Initialization pass.
                           ----------------------------
                           !    Initial Parameters    !
                           ! (Angstroms and Degrees)  !
 --------------------------                            --------------------------
 ! Name  Definition              Value          Derivative Info.                !
 --------------------------------------------------------------------------------
 ! R1    R(1,2)                  1.0919         estimate D2E/DX2                !
 ! R2    R(1,3)                  1.0919         estimate D2E/DX2                !
 ! R3    R(1,4)                  1.0919         estimate D2E/DX2                !
 ! R4    R(1,5)                  1.0919         estimate D2E/DX2                !
 ! A1    A(2,1,3)              109.4712         estimate D2E/DX2                !
 ! A2    A(2,1,4)              109.4712         estimate D2E/DX2                !
 ! A3    A(2,1,5)              109.4712         estimate D2E/DX2                !
 ! A4    A(3,1,4)              109.4712         estimate D2E/DX2                !
 ! A5    A(3,1,5)              109.4712         estimate D2E/DX2                !
 ! A6    A(4,1,5)              109.4712         estimate D2E/DX2                !
 ! D1    D(2,1,4,3)            120.0            estimate D2E/DX2                !
 ! D2    D(2,1,5,3)           -120.0            estimate D2E/DX2                !
 ! D3    D(2,1,5,4)            120.0            estimate D2E/DX2                !
 ! D4    D(3,1,5,4)           -120.0            estimate D2E/DX2                !
 --------------------------------------------------------------------------------
 Trust Radius=3.00D-01 FncErr=1.00D-07 GrdErr=1.00D-06
 Number of steps in this run=    100 maximum allowed number of steps=    100.
 GradGradGradGradGradGradGradGradGradGradGradGradGradGradGradGradGradGrad

 Leave Link  103 at Mon Jan 22 14:53:47 2018, MaxMem=  1048576000 cpu:         0.0
 (Enter /home/chemsoft/gaussian/g09e01/g09/l202.exe)
                          Input orientation:                          
 ---------------------------------------------------------------------
 Center     Atomic      Atomic             Coordinates (Angstroms)
 Number     Number       Type             X           Y           Z
 ---------------------------------------------------------------------
      1          6           0        0.000000    0.000000    0.000000
      2          1           0        0.630397    0.630397    0.630397
      3          1           0        0.630397   -0.630397   -0.630397
      4          1           0       -0.630397    0.630397   -0.630397
      5          1           0       -0.630397   -0.630397    0.630397
 ---------------------------------------------------------------------
                    Distance matrix (angstroms):
                    1          2          3          4          5
     1  C    0.000000
     2  H    1.091880   0.000000
     3  H    1.091880   1.783032   0.000000
     4  H    1.091880   1.783032   1.783032   0.000000
     5  H    1.091880   1.783032   1.783032   1.783032   0.000000
 Stoichiometry    CH4
 Framework group  TD[O(C),4C3(H)]
 Deg. of freedom     1
 Full point group                 TD      NOp  24
 Largest Abelian subgroup         D2      NOp   4
 Largest concise Abelian subgroup D2      NOp   4
                         Standard orientation:                         
 ---------------------------------------------------------------------
 Center     Atomic      Atomic             Coordinates (Angstroms)
 Number     Number       Type             X           Y           Z
 ---------------------------------------------------------------------
      1          6           0        0.000000    0.000000    0.000000
      2          1           0        0.630397    0.630397    0.630397
      3          1           0       -0.630397   -0.630397    0.630397
      4          1           0        0.630397   -0.630397   -0.630397
      5          1           0       -0.630397    0.630397   -0.630397
 ---------------------------------------------------------------------
 Rotational constants (GHZ):    157.7298137    157.7298137    157.7298137
 Leave Link  202 at Mon Jan 22 14:53:47 2018, MaxMem=  1048576000 cpu:         0.1
 (Enter /home/chemsoft/gaussian/g09e01/g09/l301.exe)
 Standard basis: def2SVP (5D, 7F)
 ======================================================================================================
                                       Pseudopotential Parameters
 ======================================================================================================
  Center     Atomic      Valence      Angular      Power
  Number     Number     Electrons     Momentum     of R      Exponent        Coefficient   SO-Coeffient
 ======================================================================================================
    1          6
                                   No pseudopotential on this center.
    2          1
                                   No pseudopotential on this center.
    3          1
                                   No pseudopotential on this center.
    4          1
                                   No pseudopotential on this center.
    5          1
                                   No pseudopotential on this center.
 ======================================================================================================
 Ernie: Thresh=  0.10000D-02 Tol=  0.10000D-05 Strict=F.
 AO basis set in the form of general basis input (Overlap normalization):
      1 0
 S   5 1.00       0.000000000000
      0.1238401694D+04  0.5517365048D-02
      0.1862900499D+03  0.4108882856D-01
      0.4225117635D+02  0.1822538213D+00
      0.1167655793D+02  0.4682845944D+00
      0.3593050648D+01  0.4457581734D+00
 S   1 1.00       0.000000000000
      0.4024514736D+00  0.1000000000D+01
 S   1 1.00       0.000000000000
      0.1309018267D+00  0.1000000000D+01
 P   3 1.00       0.000000000000
      0.9468097062D+01  0.5688833201D-01
      0.2010354514D+01  0.3129405934D+00
      0.5477100471D+00  0.7606501651D+00
 P   1 1.00       0.000000000000
      0.1526861379D+00  0.1000000000D+01
 D   1 1.00       0.000000000000
      0.8000000000D+00  0.1000000000D+01
 ****
      2 0
 S   3 1.00       0.000000000000
      0.1301070100D+02  0.3348548481D-01
      0.1962257200D+01  0.2347218709D+00
      0.4445379600D+00  0.8137702853D+00
 S   1 1.00       0.000000000000
      0.1219496200D+00  0.1000000000D+01
 P   1 1.00       0.000000000000
      0.8000000000D+00  0.1000000000D+01
 ****
      3 0
 S   3 1.00       0.000000000000
      0.1301070100D+02  0.3348548481D-01
      0.1962257200D+01  0.2347218709D+00
      0.4445379600D+00  0.8137702853D+00
 S   1 1.00       0.000000000000
      0.1219496200D+00  0.1000000000D+01
 P   1 1.00       0.000000000000
      0.8000000000D+00  0.1000000000D+01
 ****
      4 0
 S   3 1.00       0.000000000000
      0.1301070100D+02  0.3348548481D-01
      0.1962257200D+01  0.2347218709D+00
      0.4445379600D+00  0.8137702853D+00
 S   1 1.00       0.000000000000
      0.1219496200D+00  0.1000000000D+01
 P   1 1.00       0.000000000000
      0.8000000000D+00  0.1000000000D+01
 ****
      5 0
 S   3 1.00       0.000000000000
      0.1301070100D+02  0.3348548481D-01
      0.1962257200D+01  0.2347218709D+00
      0.4445379600D+00  0.8137702853D+00
 S   1 1.00       0.000000000000
      0.1219496200D+00  0.1000000000D+01
 P   1 1.00       0.000000000000
      0.8000000000D+00  0.1000000000D+01
 ****

 ***********************************************************************************************************************************
 *             ATOMIC CENTER             *        ATOMIC ORBITAL       *                     GAUSSIAN FUNCTIONS                    *
 ***********************************************************************************************************************************
 *                                       * FUNCTION    SHELL    SCALE  *                                                           *
 *    ATOM   X-COORD  Y-COORD  Z-COORD   *  NUMBER     TYPE     FACTOR *  EXPONENT    S-COEF      P-COEF      D-COEF      F-COEF   *
 ***********************************************************************************************************************************
 *     C      0.00000  0.00000  0.00000                                                                                            *
+                                                1   S           1.00                                                               
+                                                                      0.123840D+040.820896D+000.000000D+000.000000D+000.000000D+00 
 *                                                                     0.186290D+030.147664D+010.000000D+000.000000D+000.000000D+00*
 *                                                                     0.422512D+020.215261D+010.000000D+000.000000D+000.000000D+00*
 *                                                                     0.116766D+020.210817D+010.000000D+000.000000D+000.000000D+00*
 *                                                                     0.359305D+010.829100D+000.000000D+000.000000D+000.000000D+00*
 *                                               2   S           1.00                                                              *
+                                                                      0.402451D+000.360118D+000.000000D+000.000000D+000.000000D+00 
 *                                               3   S           1.00                                                              *
+                                                                      0.130902D+000.155103D+000.000000D+000.000000D+000.000000D+00 
 *                                           4-  6   P           1.00                                                              *
+                                                                      0.946810D+010.000000D+000.134676D+010.000000D+000.000000D+00 
 *                                                                     0.201035D+010.000000D+000.106781D+010.000000D+000.000000D+00*
 *                                                                     0.547710D+000.000000D+000.510874D+000.000000D+000.000000D+00*
 *                                           7-  9   P           1.00                                                              *
+                                                                      0.152686D+000.000000D+000.136047D+000.000000D+000.000000D+00 
 *                                          10- 14   D           1.00                                                              *
+                                                                      0.800000D+000.000000D+000.000000D+000.111382D+010.000000D+00 
 *---------------------------------------------------------------------------------------------------------------------------------*
 *     H      1.19128  1.19128  1.19128                                                                                            *
+                                               15   S           1.00                                                               
+                                                                      0.130107D+020.163490D+000.000000D+000.000000D+000.000000D+00 
 *                                                                     0.196226D+010.277352D+000.000000D+000.000000D+000.000000D+00*
 *                                                                     0.444538D+000.315750D+000.000000D+000.000000D+000.000000D+00*
 *                                              16   S           1.00                                                              *
+                                                                      0.121950D+000.147077D+000.000000D+000.000000D+000.000000D+00 
 *                                          17- 19   P           1.00                                                              *
+                                                                      0.800000D+000.000000D+000.107846D+010.000000D+000.000000D+00 
 *---------------------------------------------------------------------------------------------------------------------------------*
 *     H     -1.19128 -1.19128  1.19128                                                                                            *
+                                               20   S           1.00                                                               
+                                                                      0.130107D+020.163490D+000.000000D+000.000000D+000.000000D+00 
 *                                                                     0.196226D+010.277352D+000.000000D+000.000000D+000.000000D+00*
 *                                                                     0.444538D+000.315750D+000.000000D+000.000000D+000.000000D+00*
 *                                              21   S           1.00                                                              *
+                                                                      0.121950D+000.147077D+000.000000D+000.000000D+000.000000D+00 
 *                                          22- 24   P           1.00                                                              *
+                                                                      0.800000D+000.000000D+000.107846D+010.000000D+000.000000D+00 
 *---------------------------------------------------------------------------------------------------------------------------------*
 *     H      1.19128 -1.19128 -1.19128                                                                                            *
+                                               25   S           1.00                                                               
+                                                                      0.130107D+020.163490D+000.000000D+000.000000D+000.000000D+00 
 *                                                                     0.196226D+010.277352D+000.000000D+000.000000D+000.000000D+00*
 *                                                                     0.444538D+000.315750D+000.000000D+000.000000D+000.000000D+00*
 *                                              26   S           1.00                                                              *
+                                                                      0.121950D+000.147077D+000.000000D+000.000000D+000.000000D+00 
 *                                          27- 29   P           1.00                                                              *
+                                                                      0.800000D+000.000000D+000.107846D+010.000000D+000.000000D+00 
 *---------------------------------------------------------------------------------------------------------------------------------*
 *     H     -1.19128  1.19128 -1.19128                                                                                            *
+                                               30   S           1.00                                                               
+                                                                      0.130107D+020.163490D+000.000000D+000.000000D+000.000000D+00 
 *                                                                     0.196226D+010.277352D+000.000000D+000.000000D+000.000000D+00*
 *                                                                     0.444538D+000.315750D+000.000000D+000.000000D+000.000000D+00*
 *                                              31   S           1.00                                                              *
+                                                                      0.121950D+000.147077D+000.000000D+000.000000D+000.000000D+00 
 *                                          32- 34   P           1.00                                                              *
+                                                                      0.800000D+000.000000D+000.107846D+010.000000D+000.000000D+00 
 ***********************************************************************************************************************************
 There are    11 symmetry adapted cartesian basis functions of A   symmetry.
 There are     8 symmetry adapted cartesian basis functions of B1  symmetry.
 There are     8 symmetry adapted cartesian basis functions of B2  symmetry.
 There are     8 symmetry adapted cartesian basis functions of B3  symmetry.
 There are    10 symmetry adapted basis functions of A   symmetry.
 There are     8 symmetry adapted basis functions of B1  symmetry.
 There are     8 symmetry adapted basis functions of B2  symmetry.
 There are     8 symmetry adapted basis functions of B3  symmetry.
    34 basis functions,    53 primitive gaussians,    35 cartesian basis functions
     5 alpha electrons        5 beta electrons
       nuclear repulsion energy        13.4122606386 Hartrees.
 IExCor= 1009 DFT=T Ex=PBE Corr=PBE ExCW=0 ScaHFX=  0.000000
 ScaDFX=  1.000000  1.000000  1.000000  1.000000 ScalE2=  1.000000  1.000000
 IRadAn=      5 IRanWt=     -1 IRanGd=            0 ICorTp=0 IEmpDi=  4
 NAtoms=    5 NActive=    5 NUniq=    2 SFac= 4.00D+00 NAtFMM=   60 NAOKFM=F Big=F
 Integral buffers will be    131072 words long.
 Raffenetti 2 integral format.
 Two-electron integral symmetry is turned on.
 Standard density basis: W06 (5D, 7F)
    93 Density fitting functions
 Density basis set in the form of general basis input (Coulomb normalization):
      1 0
 S   7 1.00       0.000000000000
      0.1861091633D+04  0.1630432275D-02
      0.6429939764D+03  0.6165022455D-02
      0.2351105725D+03  0.3437464972D-01
      0.9070288940D+02  0.1300917169D+00
      0.3677945520D+02  0.3381150662D+00
      0.1560462730D+02  0.4227614567D+00
      0.6890729400D+01  0.1055268299D+00
 S   1 1.00       0.000000000000
      0.3147885000D+01 -0.1000000000D+01
 S   1 1.00       0.000000000000
      0.1477728700D+01  0.1000000000D+01
 S   1 1.00       0.000000000000
      0.7076466000D+00  0.1000000000D+01
 S   1 1.00       0.000000000000
      0.3430122000D+00  0.1000000000D+01
 S   1 1.00       0.000000000000
      0.1669453000D+00  0.1000000000D+01
 P   2 1.00       0.000000000000
      0.1354728920D+02 -0.5516210369D+00
      0.5466941900D+01 -0.4848245610D+00
 P   1 1.00       0.000000000000
      0.2175172100D+01  0.1000000000D+01
 P   1 1.00       0.000000000000
      0.8582194000D+00  0.1000000000D+01
 P   1 1.00       0.000000000000
      0.3376720000D+00  0.1000000000D+01
 D   2 1.00       0.000000000000
      0.5928725300D+01 -0.2191848255D+00
      0.1980920900D+01 -0.8002209528D+00
 D   1 1.00       0.000000000000
      0.8055417000D+00 -0.1000000000D+01
 D   1 1.00       0.000000000000
      0.3531244000D+00 -0.1000000000D+01
 F   2 1.00       0.000000000000
      0.1675562600D+01  0.4584544753D+00
      0.5997536000D+00  0.6032297392D+00
 G   1 1.00       0.000000000000
      0.1002460000D+01 -0.1000000000D+01
 ****
      2 0
 S   3 1.00       0.000000000000
      0.1567529270D+02  0.3261158972D-01
      0.3606357800D+01  0.2298046837D+00
      0.1208001600D+01  0.7572083240D+00
 S   1 1.00       0.000000000000
      0.4726794000D+00  0.1000000000D+01
 S   1 1.00       0.000000000000
      0.2018100000D+00  0.1000000000D+01
 P   2 1.00       0.000000000000
      0.2028136500D+01  0.3618361986D+00
      0.5358730000D+00  0.7039303088D+00
 D   1 1.00       0.000000000000
      0.2216512400D+01  0.1000000000D+01
 ****
      3 0
 S   3 1.00       0.000000000000
      0.1567529270D+02  0.3261158972D-01
      0.3606357800D+01  0.2298046837D+00
      0.1208001600D+01  0.7572083240D+00
 S   1 1.00       0.000000000000
      0.4726794000D+00  0.1000000000D+01
 S   1 1.00       0.000000000000
      0.2018100000D+00  0.1000000000D+01
 P   2 1.00       0.000000000000
      0.2028136500D+01  0.3618361986D+00
      0.5358730000D+00  0.7039303088D+00
 D   1 1.00       0.000000000000
      0.2216512400D+01  0.1000000000D+01
 ****
      4 0
 S   3 1.00       0.000000000000
      0.1567529270D+02  0.3261158972D-01
      0.3606357800D+01  0.2298046837D+00
      0.1208001600D+01  0.7572083240D+00
 S   1 1.00       0.000000000000
      0.4726794000D+00  0.1000000000D+01
 S   1 1.00       0.000000000000
      0.2018100000D+00  0.1000000000D+01
 P   2 1.00       0.000000000000
      0.2028136500D+01  0.3618361986D+00
      0.5358730000D+00  0.7039303088D+00
 D   1 1.00       0.000000000000
      0.2216512400D+01  0.1000000000D+01
 ****
      5 0
 S   3 1.00       0.000000000000
      0.1567529270D+02  0.3261158972D-01
      0.3606357800D+01  0.2298046837D+00
      0.1208001600D+01  0.7572083240D+00
 S   1 1.00       0.000000000000
      0.4726794000D+00  0.1000000000D+01
 S   1 1.00       0.000000000000
      0.2018100000D+00  0.1000000000D+01
 P   2 1.00       0.000000000000
      0.2028136500D+01  0.3618361986D+00
      0.5358730000D+00  0.7039303088D+00
 D   1 1.00       0.000000000000
      0.2216512400D+01  0.1000000000D+01
 ****

 There are    93 symmetry adapted density basis functions of A   symmetry.
 Leave Link  301 at Mon Jan 22 14:53:47 2018, MaxMem=  1048576000 cpu:         0.3
 (Enter /home/chemsoft/gaussian/g09e01/g09/l302.exe)
 NPDir=0 NMtPBC=     1 NCelOv=     1 NCel=       1 NClECP=     1 NCelD=      1
         NCelK=      1 NCelE2=     1 NClLst=     1 CellRange=     0.0.
 One-electron integrals computed using PRISM.
 One-electron integral symmetry used in STVInt
  24 Symmetry operations used in ECPInt.
 ECPInt:  NShTT=     171 NPrTT=     553 LenC2=     172 LenP2D=     539.
 LDataN:  DoStor=T MaxTD1= 4 Len=   56
 NBasis=    34 RedAO= T EigKep=  1.81D-02  NBF=    10     8     8     8
 NBsUse=    34 1.00D-06 EigRej= -1.00D+00 NBFU=    10     8     8     8
 NBasis=       34 NBas6D=       35 NTT=         595   NTT6D=      630
 NDBShl=       35 NDBF=         93 NDBF6D=      109  NNucDB=        0
 IDenFi=        2 ISolve=        0 FullAP=F BlkAPC=T NucTyp=        0
 TolInv= 1.00D-06 TolIt=  1.00D-10 IR12=0.
 FoFCou: FMM=F IPFlag=           0 FMFlag=           0 FMFlg1=           0
         NFxFlg=           0 DoJE=F BraDBF=T KetDBF=T FulRan=T
         wScrn=  0.000000 ICntrl=     600 IOpCl=  3 I1Cent=           6 NGrid=           0
         NMat0=    1 NMatS0=    109 NMatT0=    0 NMatD0=    1 NMtDS0=    0 NMtDT0=    0
 Petite list used in FoFCou.
 DBF EigKep=  8.40D-05 EigRej= -1.00D+00
 NDBF=     93  NBFD=    93
 NRank=    93 NBFDU=    93
 S*AI*S=  5.08435285623    
 Precomputing XC quadrature grid using
 IXCGrd= 4 IRadAn=           5 IRanWt=          -1 IRanGd=           0 AccXCQ= 0.00D+00.
 Generated NRdTot=       0 NPtTot=           0 NUsed=           0 NTot=          32
 NSgBfM=    35    35    35    35    35 MxSgAt=     5 MxSgA2=     5.
 Leave Link  302 at Mon Jan 22 14:53:48 2018, MaxMem=  1048576000 cpu:         0.8
 (Enter /home/chemsoft/gaussian/g09e01/g09/l303.exe)
 DipDrv:  MaxL=1.
 Leave Link  303 at Mon Jan 22 14:53:48 2018, MaxMem=  1048576000 cpu:         0.1
 (Enter /home/chemsoft/gaussian/g09e01/g09/l401.exe)
 ExpMin= 1.22D-01 ExpMax= 1.24D+03 ExpMxC= 1.86D+02 IAcc=3 IRadAn=         5 AccDes= 0.00D+00
 Harris functional with IExCor= 1009 and IRadAn=       5 diagonalized for initial guess.
 HarFok:  IExCor= 1009 AccDes= 0.00D+00 IRadAn=         5 IDoV= 1 UseB2=F ITyADJ=14
 ICtDFT=  3500011 ScaDFX=  1.000000  1.000000  1.000000  1.000000
 FoFCou: FMM=F IPFlag=           0 FMFlag=      100000 FMFlg1=           0
         NFxFlg=           0 DoJE=T BraDBF=F KetDBF=T FulRan=T
         wScrn=  0.000000 ICntrl=     500 IOpCl=  0 I1Cent=   200000004 NGrid=           0
         NMat0=    1 NMatS0=      1 NMatT0=    0 NMatD0=    1 NMtDS0=    0 NMtDT0=    0
 Petite list used in FoFCou.
 Harris En= -40.4839730150875    
 JPrj=0 DoOrth=F DoCkMO=F.
 Initial guess orbital symmetries:
       Occupied  (A1) (A1) (T2) (T2) (T2)
       Virtual   (A1) (T2) (T2) (T2) (T2) (T2) (T2) (A1) (T2) (T2)
                 (T2) (A1) (E) (E) (T1) (T1) (T1) (T2) (T2) (T2)
                 (T2) (T2) (T2) (E) (E) (A1) (T2) (T2) (T2)
 The electronic state of the initial guess is 1-A1.
 Leave Link  401 at Mon Jan 22 14:53:48 2018, MaxMem=  1048576000 cpu:         0.6
 (Enter /home/chemsoft/gaussian/g09e01/g09/l502.exe)
 Closed shell SCF:
 Density fitting will be used, IDenFit= 2 NucTyp=  0.
 Using DIIS extrapolation, IDIIS=  1040.
 Integral symmetry usage will be decided dynamically.
 IVT=      259551 IEndB=      259551 NGot=  1048576000 MDV=  1048568710
 LenX=  1048568710 LenY=  1048567044
 Requested convergence on RMS density matrix=1.00D-08 within 500 cycles.
 Requested convergence on MAX density matrix=1.00D-06.
 Requested convergence on             energy=1.00D-06.
 No special actions if energy rises.
 Fock matrices will be formed incrementally for  20 cycles.

 Cycle   1  Pass 0  IDiag  1:
 FoFCou: FMM=F IPFlag=           0 FMFlag=      100000 FMFlg1=           0
         NFxFlg=           0 DoJE=T BraDBF=T KetDBF=F FulRan=T
         wScrn=  0.000000 ICntrl=     500 IOpCl=  0 I1Cent=           5 NGrid=           0
         NMat0=    1 NMatS0=      1 NMatT0=    0 NMatD0=    1 NMtDS0=    0 NMtDT0=    0
 Petite list used in FoFCou.
 FoFJK:  IHMeth= 1 ICntrl=     500 DoSepK=F KAlg= 0 I1Cent=   4 FoldK=F
 IRaf= 990000000 NMat=   1 IRICut=       1 DoRegI=T DoRafI=F ISym2E= 1.
 E= -40.3364679943819    
 DIIS: error= 6.26D-02 at cycle   1 NSaved=   1.
 NSaved= 1 IEnMin= 1 EnMin= -40.3364679943819     IErMin= 1 ErrMin= 6.26D-02
 ErrMax= 6.26D-02  0.00D+00 EMaxC= 1.00D-01 BMatC= 6.91D-02 BMatP= 6.91D-02
 IDIUse=3 WtCom= 3.74D-01 WtEn= 6.26D-01
 Coeff-Com:  0.100D+01
 Coeff-En:   0.100D+01
 Coeff:      0.100D+01
 Gap=     0.315 Goal=   None    Shift=    0.000
 GapD=    0.315 DampG=1.000 DampE=0.500 DampFc=0.5000 IDamp=-1.
 Damping current iteration by 5.00D-01
 RMSDP=1.69D-02 MaxDP=1.71D-01              OVMax= 2.13D-01

 Cycle   2  Pass 0  IDiag  1:
 RMSU=  8.01D-03    CP:  9.35D-01
 E= -40.3629698747859     Delta-E=       -0.026501880404 Rises=F Damp=T
 DIIS: error= 1.28D-02 at cycle   2 NSaved=   2.
 NSaved= 2 IEnMin= 2 EnMin= -40.3629698747859     IErMin= 2 ErrMin= 1.28D-02
 ErrMax= 1.28D-02  0.00D+00 EMaxC= 1.00D-01 BMatC= 4.01D-03 BMatP= 6.91D-02
 IDIUse=3 WtCom= 8.72D-01 WtEn= 1.28D-01
 Coeff-Com:  0.186D+00 0.814D+00
 Coeff-En:   0.307D+00 0.693D+00
 Coeff:      0.202D+00 0.798D+00
 Gap=     0.388 Goal=   None    Shift=    0.000
 RMSDP=2.06D-03 MaxDP=2.00D-02 DE=-2.65D-02 OVMax= 1.23D-01

 Cycle   3  Pass 0  IDiag  1:
 RMSU=  1.50D-03    CP:  9.45D-01  8.32D-01
 E= -40.4146435887846     Delta-E=       -0.051673713999 Rises=F Damp=F
 DIIS: error= 1.59D-03 at cycle   3 NSaved=   3.
 NSaved= 3 IEnMin= 3 EnMin= -40.4146435887846     IErMin= 3 ErrMin= 1.59D-03
 ErrMax= 1.59D-03  0.00D+00 EMaxC= 1.00D-01 BMatC= 5.04D-05 BMatP= 4.01D-03
 IDIUse=3 WtCom= 9.84D-01 WtEn= 1.59D-02
 Coeff-Com:  0.212D-01-0.244D-01 0.100D+01
 Coeff-En:   0.000D+00 0.000D+00 0.100D+01
 Coeff:      0.209D-01-0.240D-01 0.100D+01
 Gap=     0.398 Goal=   None    Shift=    0.000
 RMSDP=1.72D-04 MaxDP=2.28D-03 DE=-5.17D-02 OVMax= 2.06D-03

 Cycle   4  Pass 0  IDiag  1:
 RMSU=  6.67D-05    CP:  9.46D-01  8.14D-01  9.85D-01
 E= -40.4146948333889     Delta-E=       -0.000051244604 Rises=F Damp=F
 DIIS: error= 6.04D-05 at cycle   4 NSaved=   4.
 NSaved= 4 IEnMin= 4 EnMin= -40.4146948333889     IErMin= 4 ErrMin= 6.04D-05
 ErrMax= 6.04D-05  0.00D+00 EMaxC= 1.00D-01 BMatC= 6.69D-08 BMatP= 5.04D-05
 IDIUse=1 WtCom= 1.00D+00 WtEn= 0.00D+00
 Coeff-Com:  0.162D-02-0.347D-04 0.260D-01 0.972D+00
 Coeff:      0.162D-02-0.347D-04 0.260D-01 0.972D+00
 Gap=     0.398 Goal=   None    Shift=    0.000
 RMSDP=6.31D-06 MaxDP=7.58D-05 DE=-5.12D-05 OVMax= 8.23D-05

 Initial convergence to 1.0D-05 achieved.  Increase integral accuracy.
 Cycle   5  Pass 1  IDiag  1:
 E= -40.4146905259754     Delta-E=        0.000004307413 Rises=F Damp=F
 DIIS: error= 1.84D-06 at cycle   1 NSaved=   1.
 NSaved= 1 IEnMin= 1 EnMin= -40.4146905259754     IErMin= 1 ErrMin= 1.84D-06
 ErrMax= 1.84D-06  0.00D+00 EMaxC= 1.00D-01 BMatC= 1.19D-10 BMatP= 1.19D-10
 IDIUse=1 WtCom= 1.00D+00 WtEn= 0.00D+00
 Coeff-Com:  0.100D+01
 Coeff:      0.100D+01
 Gap=     0.398 Goal=   None    Shift=    0.000
 RMSDP=6.31D-06 MaxDP=7.58D-05 DE= 4.31D-06 OVMax= 6.19D-06

 Cycle   6  Pass 1  IDiag  1:
 RMSU=  1.09D-06    CP:  1.00D+00
 E= -40.4146905261527     Delta-E=       -0.000000000177 Rises=F Damp=F
 DIIS: error= 1.22D-06 at cycle   2 NSaved=   2.
 NSaved= 2 IEnMin= 2 EnMin= -40.4146905261527     IErMin= 2 ErrMin= 1.22D-06
 ErrMax= 1.22D-06  0.00D+00 EMaxC= 1.00D-01 BMatC= 2.68D-11 BMatP= 1.19D-10
 IDIUse=1 WtCom= 1.00D+00 WtEn= 0.00D+00
 Coeff-Com:  0.274D+00 0.726D+00
 Coeff:      0.274D+00 0.726D+00
 Gap=     0.398 Goal=   None    Shift=    0.000
 RMSDP=2.46D-07 MaxDP=2.67D-06 DE=-1.77D-10 OVMax= 3.06D-06

 Cycle   7  Pass 1  IDiag  1:
 RMSU=  2.39D-07    CP:  1.00D+00  1.03D+00
 E= -40.4146905261642     Delta-E=       -0.000000000011 Rises=F Damp=F
 DIIS: error= 9.66D-07 at cycle   3 NSaved=   3.
 NSaved= 3 IEnMin= 3 EnMin= -40.4146905261642     IErMin= 3 ErrMin= 9.66D-07
 ErrMax= 9.66D-07  0.00D+00 EMaxC= 1.00D-01 BMatC= 1.78D-11 BMatP= 2.68D-11
 IDIUse=1 WtCom= 1.00D+00 WtEn= 0.00D+00
 Coeff-Com:  0.317D-01 0.452D+00 0.517D+00
 Coeff:      0.317D-01 0.452D+00 0.517D+00
 Gap=     0.398 Goal=   None    Shift=    0.000
 RMSDP=9.56D-08 MaxDP=1.22D-06 DE=-1.15D-11 OVMax= 1.27D-06

 Cycle   8  Pass 1  IDiag  1:
 RMSU=  2.71D-08    CP:  1.00D+00  1.02D+00  6.26D-01
 E= -40.4146905261830     Delta-E=       -0.000000000019 Rises=F Damp=F
 DIIS: error= 2.84D-08 at cycle   4 NSaved=   4.
 NSaved= 4 IEnMin= 4 EnMin= -40.4146905261830     IErMin= 4 ErrMin= 2.84D-08
 ErrMax= 2.84D-08  0.00D+00 EMaxC= 1.00D-01 BMatC= 1.53D-14 BMatP= 1.78D-11
 IDIUse=1 WtCom= 1.00D+00 WtEn= 0.00D+00
 Coeff-Com: -0.132D-02 0.442D-01 0.327D-01 0.924D+00
 Coeff:     -0.132D-02 0.442D-01 0.327D-01 0.924D+00
 Gap=     0.398 Goal=   None    Shift=    0.000
 RMSDP=4.62D-09 MaxDP=2.90D-08 DE=-1.87D-11 OVMax= 5.50D-08

 SCF Done:  E(RPBE-PBE) =  -40.4146905262     A.U. after    8 cycles
            NFock=  8  Conv=0.46D-08     -V/T= 2.0142
 KE= 3.984809690021D+01 PE=-1.195821852627D+02 EE= 2.590713719772D+01
 Leave Link  502 at Mon Jan 22 14:53:52 2018, MaxMem=  1048576000 cpu:         7.1
 (Enter /home/chemsoft/gaussian/g09e01/g09/l508.exe)
 QCSCF skips out because SCF is already converged.
 Leave Link  508 at Mon Jan 22 14:53:52 2018, MaxMem=  1048576000 cpu:         0.0
 (Enter /home/chemsoft/gaussian/g09e01/g09/l601.exe)
 Copying SCF densities to generalized density rwf, IOpCl= 0 IROHF=0.

 **********************************************************************

            Population analysis using the SCF density.

 **********************************************************************

 Orbital symmetries:
       Occupied  (A1) (A1) (T2) (T2) (T2)
       Virtual   (A1) (T2) (T2) (T2) (T2) (T2) (T2) (A1) (T2) (T2)
                 (T2) (A1) (E) (E) (T1) (T1) (T1) (T2) (T2) (T2)
                 (T2) (T2) (T2) (E) (E) (A1) (T2) (T2) (T2)
 The electronic state is 1-A1.
 Alpha  occ. eigenvalues --   -9.88045  -0.61657  -0.34276  -0.34276  -0.34276
 Alpha virt. eigenvalues --    0.05556   0.12220   0.12220   0.12220   0.38787
 Alpha virt. eigenvalues --    0.38787   0.38787   0.61177   0.63733   0.63733
 Alpha virt. eigenvalues --    0.63733   0.73872   1.03485   1.03485   1.47073
 Alpha virt. eigenvalues --    1.47073   1.47073   1.69793   1.69793   1.69793
 Alpha virt. eigenvalues --    2.06497   2.06497   2.06497   2.45090   2.45090
 Alpha virt. eigenvalues --    2.53019   2.83200   2.83200   2.83200
     Molecular Orbital Coefficients:
                           1         2         3         4         5
                        (A1)--O   (A1)--O   (T2)--O   (T2)--O   (T2)--O
     Eigenvalues --    -9.88045  -0.61657  -0.34276  -0.34276  -0.34276
   1 1   C  1S          0.98730  -0.25158   0.00000   0.00000   0.00000
   2        2S          0.05437   0.48596   0.00000   0.00000   0.00000
   3        3S         -0.04263   0.11620   0.00000   0.00000   0.00000
   4        4PX         0.00000   0.00000   0.00000   0.00000   0.44357
   5        4PY         0.00000   0.00000   0.00000   0.44357   0.00000
   6        4PZ         0.00000   0.00000   0.44357   0.00000   0.00000
   7        5PX         0.00000   0.00000   0.00000   0.00000   0.18605
   8        5PY         0.00000   0.00000   0.00000   0.18605   0.00000
   9        5PZ         0.00000   0.00000   0.18605   0.00000   0.00000
  10        6D 0       -0.00000  -0.00000   0.00000   0.00000   0.00000
  11        6D+1        0.00000   0.00000   0.00000   0.01652   0.00000
  12        6D-1        0.00000   0.00000   0.00000   0.00000   0.01652
  13        6D+2        0.00000   0.00000   0.00000   0.00000   0.00000
  14        6D-2        0.00000   0.00000   0.01652   0.00000   0.00000
  15 2   H  1S         -0.00380   0.17781   0.22244   0.22244   0.22244
  16        2S          0.00812   0.03802   0.09680   0.09680   0.09680
  17        3PX         0.00168  -0.01238  -0.00839  -0.00839   0.00581
  18        3PY         0.00168  -0.01238  -0.00839   0.00581  -0.00839
  19        3PZ         0.00168  -0.01238   0.00581  -0.00839  -0.00839
  20 3   H  1S         -0.00380   0.17781   0.22244  -0.22244  -0.22244
  21        2S          0.00812   0.03802   0.09680  -0.09680  -0.09680
  22        3PX        -0.00168   0.01238   0.00839  -0.00839   0.00581
  23        3PY        -0.00168   0.01238   0.00839   0.00581  -0.00839
  24        3PZ         0.00168  -0.01238   0.00581   0.00839   0.00839
  25 4   H  1S         -0.00380   0.17781  -0.22244  -0.22244   0.22244
  26        2S          0.00812   0.03802  -0.09680  -0.09680   0.09680
  27        3PX         0.00168  -0.01238   0.00839   0.00839   0.00581
  28        3PY        -0.00168   0.01238  -0.00839   0.00581   0.00839
  29        3PZ        -0.00168   0.01238   0.00581  -0.00839   0.00839
  30 5   H  1S         -0.00380   0.17781  -0.22244   0.22244  -0.22244
  31        2S          0.00812   0.03802  -0.09680   0.09680  -0.09680
  32        3PX        -0.00168   0.01238  -0.00839   0.00839   0.00581
  33        3PY         0.00168  -0.01238   0.00839   0.00581   0.00839
  34        3PZ        -0.00168   0.01238   0.00581   0.00839  -0.00839
                           6         7         8         9        10
                        (A1)--V   (T2)--V   (T2)--V   (T2)--V   (T2)--V
     Eigenvalues --     0.05556   0.12220   0.12220   0.12220   0.38787
   1 1   C  1S         -0.15554   0.00000   0.00000   0.00000   0.00000
   2        2S          0.25520   0.00000   0.00000   0.00000   0.00000
   3        3S          2.84237   0.00000   0.00000   0.00000   0.00000
   4        4PX         0.00000   0.00000   0.39116   0.00000   0.00000
   5        4PY         0.00000   0.00000   0.00000   0.39116  -0.30045
   6        4PZ         0.00000   0.39116   0.00000   0.00000   0.00000
   7        5PX         0.00000   0.00000   1.22647   0.00000   0.00000
   8        5PY         0.00000   0.00000   0.00000   1.22647   1.16502
   9        5PZ         0.00000   1.22647   0.00000   0.00000   0.00000
  10        6D 0        0.00000   0.00000   0.00000   0.00000   0.00000
  11        6D+1        0.00000   0.00000   0.00000  -0.01981  -0.08984
  12        6D-1        0.00000   0.00000  -0.01981   0.00000   0.00000
  13        6D+2        0.00000   0.00000   0.00000   0.00000   0.00000
  14        6D-2        0.00000  -0.01981   0.00000   0.00000   0.00000
  15 2   H  1S         -0.03271  -0.08836  -0.08836  -0.08836  -0.50643
  16        2S         -1.04972  -1.14648  -1.14648  -1.14648   0.09758
  17        3PX        -0.00547  -0.00795   0.00384  -0.00795  -0.01480
  18        3PY        -0.00547  -0.00795  -0.00795   0.00384   0.03071
  19        3PZ        -0.00547   0.00384  -0.00795  -0.00795  -0.01480
  20 3   H  1S         -0.03271  -0.08836   0.08836   0.08836   0.50643
  21        2S         -1.04972  -1.14648   1.14648   1.14648  -0.09758
  22        3PX         0.00547   0.00795   0.00384  -0.00795  -0.01480
  23        3PY         0.00547   0.00795  -0.00795   0.00384   0.03071
  24        3PZ        -0.00547   0.00384   0.00795   0.00795   0.01480
  25 4   H  1S         -0.03271   0.08836  -0.08836   0.08836   0.50643
  26        2S         -1.04972   1.14648  -1.14648   1.14648  -0.09758
  27        3PX        -0.00547   0.00795   0.00384   0.00795   0.01480
  28        3PY         0.00547  -0.00795   0.00795   0.00384   0.03071
  29        3PZ         0.00547   0.00384   0.00795  -0.00795  -0.01480
  30 5   H  1S         -0.03271   0.08836   0.08836  -0.08836  -0.50643
  31        2S         -1.04972   1.14648   1.14648  -1.14648   0.09758
  32        3PX         0.00547  -0.00795   0.00384   0.00795   0.01480
  33        3PY        -0.00547   0.00795   0.00795   0.00384   0.03071
  34        3PZ         0.00547   0.00384  -0.00795   0.00795   0.01480
                          11        12        13        14        15
                        (T2)--V   (T2)--V   (A1)--V   (T2)--V   (T2)--V
     Eigenvalues --     0.38787   0.38787   0.61177   0.63733   0.63733
   1 1   C  1S          0.00000   0.00000   0.30855   0.00000   0.00000
   2        2S          0.00000   0.00000  -1.86187   0.00000   0.00000
   3        3S          0.00000   0.00000   4.48162   0.00000   0.00000
   4        4PX        -0.30045   0.00000   0.00000   0.00000  -0.93039
   5        4PY         0.00000   0.00000   0.00000   0.00000   0.00000
   6        4PZ         0.00000  -0.30045   0.00000  -0.93039   0.00000
   7        5PX         1.16502   0.00000   0.00000   0.00000   1.68043
   8        5PY         0.00000   0.00000   0.00000   0.00000   0.00000
   9        5PZ         0.00000   1.16502   0.00000   1.68043   0.00000
  10        6D 0        0.00000   0.00000   0.00000   0.00000   0.00000
  11        6D+1        0.00000   0.00000   0.00000   0.00000   0.00000
  12        6D-1       -0.08984   0.00000   0.00000   0.00000   0.14193
  13        6D+2        0.00000   0.00000   0.00000   0.00000   0.00000
  14        6D-2        0.00000  -0.08984   0.00000   0.14193   0.00000
  15 2   H  1S         -0.50643  -0.50643   0.36818   0.33072   0.33072
  16        2S          0.09758   0.09758  -1.17233  -1.12115  -1.12115
  17        3PX         0.03071  -0.01480   0.05963   0.07759   0.01839
  18        3PY        -0.01480  -0.01480   0.05963   0.07759   0.07759
  19        3PZ        -0.01480   0.03071   0.05963   0.01839   0.07759
  20 3   H  1S          0.50643  -0.50643   0.36818   0.33072  -0.33072
  21        2S         -0.09758   0.09758  -1.17233  -1.12115   1.12115
  22        3PX         0.03071   0.01480  -0.05963  -0.07759   0.01839
  23        3PY        -0.01480   0.01480  -0.05963  -0.07759   0.07759
  24        3PZ         0.01480   0.03071   0.05963   0.01839  -0.07759
  25 4   H  1S         -0.50643   0.50643   0.36818  -0.33072   0.33072
  26        2S          0.09758  -0.09758  -1.17233   1.12115  -1.12115
  27        3PX         0.03071   0.01480   0.05963  -0.07759   0.01839
  28        3PY         0.01480  -0.01480  -0.05963   0.07759  -0.07759
  29        3PZ         0.01480   0.03071  -0.05963   0.01839  -0.07759
  30 5   H  1S          0.50643   0.50643   0.36818  -0.33072  -0.33072
  31        2S         -0.09758  -0.09758  -1.17233   1.12115   1.12115
  32        3PX         0.03071  -0.01480  -0.05963   0.07759   0.01839
  33        3PY         0.01480   0.01480   0.05963  -0.07759  -0.07759
  34        3PZ        -0.01480   0.03071  -0.05963   0.01839   0.07759
                          16        17        18        19        20
                        (T2)--V   (A1)--V   (E)--V    (E)--V    (T1)--V
     Eigenvalues --     0.63733   0.73872   1.03485   1.03485   1.47073
   1 1   C  1S          0.00000   0.09204  -0.00000  -0.00000   0.00000
   2        2S          0.00000  -1.39371   0.00000   0.00000   0.00000
   3        3S          0.00000   5.15028  -0.00000  -0.00000   0.00000
   4        4PX         0.00000   0.00000   0.00000   0.00000   0.00000
   5        4PY        -0.93039   0.00000   0.00000   0.00000   0.00000
   6        4PZ         0.00000   0.00000   0.00000   0.00000  -0.00000
   7        5PX         0.00000   0.00000   0.00000   0.00000   0.00000
   8        5PY         1.68043   0.00000   0.00000   0.00000   0.00000
   9        5PZ         0.00000   0.00000   0.00000   0.00000   0.00000
  10        6D 0        0.00000   0.00000   0.16583   0.34944   0.00000
  11        6D+1        0.14193   0.00000   0.00000   0.00000   0.00000
  12        6D-1        0.00000   0.00000   0.00000   0.00000   0.00000
  13        6D+2        0.00000   0.00000   0.34944  -0.16583   0.00000
  14        6D-2        0.00000   0.00000   0.00000   0.00000   0.00000
  15 2   H  1S          0.33072  -0.69114   0.00000   0.00000  -0.00000
  16        2S         -1.12115  -0.84352   0.00000   0.00000   0.00000
  17        3PX         0.07759  -0.02651   0.16777  -0.24309   0.36448
  18        3PY         0.01839  -0.02651  -0.29440  -0.02375  -0.36448
  19        3PZ         0.07759  -0.02651   0.12663   0.26683  -0.00000
  20 3   H  1S         -0.33072  -0.69114   0.00000   0.00000  -0.00000
  21        2S          1.12115  -0.84352   0.00000   0.00000   0.00000
  22        3PX         0.07759   0.02651  -0.16777   0.24309  -0.36448
  23        3PY         0.01839   0.02651   0.29440   0.02375   0.36448
  24        3PZ        -0.07759  -0.02651   0.12663   0.26683  -0.00000
  25 4   H  1S         -0.33072  -0.69114   0.00000   0.00000   0.00000
  26        2S          1.12115  -0.84352   0.00000   0.00000  -0.00000
  27        3PX        -0.07759  -0.02651   0.16777  -0.24309  -0.36448
  28        3PY         0.01839   0.02651   0.29440   0.02375  -0.36448
  29        3PZ         0.07759   0.02651  -0.12663  -0.26683  -0.00000
  30 5   H  1S          0.33072  -0.69114   0.00000   0.00000   0.00000
  31        2S         -1.12115  -0.84352   0.00000   0.00000  -0.00000
  32        3PX        -0.07759   0.02651  -0.16777   0.24309   0.36448
  33        3PY         0.01839  -0.02651  -0.29440  -0.02375   0.36448
  34        3PZ        -0.07759   0.02651  -0.12663  -0.26683  -0.00000
                          21        22        23        24        25
                        (T1)--V   (T1)--V   (T2)--V   (T2)--V   (T2)--V
     Eigenvalues --     1.47073   1.47073   1.69793   1.69793   1.69793
   1 1   C  1S          0.00000   0.00000   0.00000   0.00000   0.00000
   2        2S          0.00000   0.00000   0.00000   0.00000   0.00000
   3        3S          0.00000   0.00000   0.00000   0.00000   0.00000
   4        4PX         0.00000  -0.00000  -0.20881   0.00000   0.00000
   5        4PY         0.00000   0.00000   0.00000   0.00000  -0.20881
   6        4PZ         0.00000   0.00000   0.00000  -0.20881   0.00000
   7        5PX         0.00000   0.00000   0.91736   0.00000   0.00000
   8        5PY         0.00000   0.00000   0.00000   0.00000   0.91736
   9        5PZ         0.00000   0.00000   0.00000   0.91736   0.00000
  10        6D 0        0.00000   0.00000   0.00000   0.00000   0.00000
  11        6D+1       -0.00000   0.00000   0.00000   0.00000   0.35403
  12        6D-1        0.00000   0.00000   0.35403   0.00000   0.00000
  13        6D+2        0.00000   0.00000   0.00000   0.00000   0.00000
  14        6D-2        0.00000   0.00000   0.00000   0.35403   0.00000
  15 2   H  1S         -0.00000  -0.00000  -0.26807  -0.26807  -0.26807
  16        2S          0.00000   0.00000  -0.08979  -0.08979  -0.08979
  17        3PX         0.36448  -0.00000  -0.46461  -0.01265  -0.01265
  18        3PY        -0.00000   0.36448  -0.01265  -0.01265  -0.46461
  19        3PZ        -0.36448  -0.36448  -0.01265  -0.46461  -0.01265
  20 3   H  1S          0.00000   0.00000   0.26807  -0.26807   0.26807
  21        2S         -0.00000  -0.00000   0.08979  -0.08979   0.08979
  22        3PX         0.36448  -0.00000  -0.46461   0.01265  -0.01265
  23        3PY        -0.00000   0.36448  -0.01265   0.01265  -0.46461
  24        3PZ         0.36448   0.36448   0.01265  -0.46461   0.01265
  25 4   H  1S          0.00000  -0.00000  -0.26807   0.26807   0.26807
  26        2S         -0.00000   0.00000  -0.08979   0.08979   0.08979
  27        3PX        -0.36448  -0.00000  -0.46461   0.01265   0.01265
  28        3PY        -0.00000  -0.36448   0.01265  -0.01265  -0.46461
  29        3PZ        -0.36448   0.36448   0.01265  -0.46461  -0.01265
  30 5   H  1S         -0.00000   0.00000   0.26807   0.26807  -0.26807
  31        2S          0.00000  -0.00000   0.08979   0.08979  -0.08979
  32        3PX        -0.36448  -0.00000  -0.46461  -0.01265   0.01265
  33        3PY        -0.00000  -0.36448   0.01265   0.01265  -0.46461
  34        3PZ         0.36448  -0.36448  -0.01265  -0.46461   0.01265
                          26        27        28        29        30
                        (T2)--V   (T2)--V   (T2)--V   (E)--V    (E)--V
     Eigenvalues --     2.06497   2.06497   2.06497   2.45090   2.45090
   1 1   C  1S          0.00000   0.00000   0.00000  -0.00000  -0.00000
   2        2S          0.00000   0.00000   0.00000   0.00000   0.00000
   3        3S          0.00000   0.00000   0.00000   0.00000   0.00000
   4        4PX         0.00000   0.55200   0.00000   0.00000   0.00000
   5        4PY         0.00000   0.00000   0.55200   0.00000   0.00000
   6        4PZ         0.55200   0.00000   0.00000   0.00000   0.00000
   7        5PX         0.00000   0.81054   0.00000   0.00000   0.00000
   8        5PY         0.00000   0.00000   0.81054   0.00000   0.00000
   9        5PZ         0.81054   0.00000   0.00000   0.00000   0.00000
  10        6D 0        0.00000   0.00000   0.00000  -0.76560   0.82062
  11        6D+1        0.00000   0.00000  -0.42585   0.00000   0.00000
  12        6D-1        0.00000  -0.42585   0.00000   0.00000   0.00000
  13        6D+2        0.00000   0.00000   0.00000   0.82062   0.76560
  14        6D-2       -0.42585   0.00000   0.00000   0.00000   0.00000
  15 2   H  1S         -0.12125  -0.12125  -0.12125  -0.00000  -0.00000
  16        2S         -0.40164  -0.40164  -0.40164  -0.00000  -0.00000
  17        3PX         0.38224  -0.22062   0.38224  -0.36336  -0.08398
  18        3PY         0.38224   0.38224  -0.22062   0.10895   0.35666
  19        3PZ        -0.22062   0.38224   0.38224   0.25440  -0.27269
  20 3   H  1S         -0.12125   0.12125   0.12125  -0.00000  -0.00000
  21        2S         -0.40164   0.40164   0.40164  -0.00000  -0.00000
  22        3PX        -0.38224  -0.22062   0.38224   0.36336   0.08398
  23        3PY        -0.38224   0.38224  -0.22062  -0.10895  -0.35666
  24        3PZ        -0.22062  -0.38224  -0.38224   0.25440  -0.27269
  25 4   H  1S          0.12125  -0.12125   0.12125  -0.00000  -0.00000
  26        2S          0.40164  -0.40164   0.40164  -0.00000  -0.00000
  27        3PX        -0.38224  -0.22062  -0.38224  -0.36336  -0.08398
  28        3PY         0.38224  -0.38224  -0.22062  -0.10895  -0.35666
  29        3PZ        -0.22062  -0.38224   0.38224  -0.25440   0.27269
  30 5   H  1S          0.12125   0.12125  -0.12125  -0.00000  -0.00000
  31        2S          0.40164   0.40164  -0.40164  -0.00000  -0.00000
  32        3PX         0.38224  -0.22062  -0.38224   0.36336   0.08398
  33        3PY        -0.38224  -0.38224  -0.22062   0.10895   0.35666
  34        3PZ        -0.22062   0.38224  -0.38224  -0.25440   0.27269
                          31        32        33        34
                        (A1)--V   (T2)--V   (T2)--V   (T2)--V
     Eigenvalues --     2.53019   2.83200   2.83200   2.83200
   1 1   C  1S         -0.30750   0.00000   0.00000   0.00000
   2        2S          1.88553   0.00000   0.00000   0.00000
   3        3S          1.11812   0.00000   0.00000   0.00000
   4        4PX         0.00000   1.10163   0.00000   0.00000
   5        4PY         0.00000   0.00000   0.00000   1.10163
   6        4PZ         0.00000   0.00000   1.10163   0.00000
   7        5PX         0.00000   0.60680   0.00000   0.00000
   8        5PY         0.00000   0.00000   0.00000   0.60680
   9        5PZ         0.00000   0.00000   0.60680   0.00000
  10        6D 0       -0.00000   0.00000   0.00000   0.00000
  11        6D+1        0.00000   0.00000   0.00000   1.37027
  12        6D-1        0.00000   1.37027   0.00000   0.00000
  13        6D+2       -0.00000   0.00000   0.00000   0.00000
  14        6D-2        0.00000   0.00000   1.37027   0.00000
  15 2   H  1S         -0.57514  -0.67138  -0.67138  -0.67138
  16        2S         -0.29772  -0.26757  -0.26757  -0.26757
  17        3PX         0.45876   0.45565   0.39275   0.39275
  18        3PY         0.45876   0.39275   0.39275   0.45565
  19        3PZ         0.45876   0.39275   0.45565   0.39275
  20 3   H  1S         -0.57514   0.67138  -0.67138   0.67138
  21        2S         -0.29772   0.26757  -0.26757   0.26757
  22        3PX        -0.45876   0.45565  -0.39275   0.39275
  23        3PY        -0.45876   0.39275  -0.39275   0.45565
  24        3PZ         0.45876  -0.39275   0.45565  -0.39275
  25 4   H  1S         -0.57514  -0.67138   0.67138   0.67138
  26        2S         -0.29772  -0.26757   0.26757   0.26757
  27        3PX         0.45876   0.45565  -0.39275  -0.39275
  28        3PY        -0.45876  -0.39275   0.39275   0.45565
  29        3PZ        -0.45876  -0.39275   0.45565   0.39275
  30 5   H  1S         -0.57514   0.67138   0.67138  -0.67138
  31        2S         -0.29772   0.26757   0.26757  -0.26757
  32        3PX        -0.45876   0.45565   0.39275  -0.39275
  33        3PY         0.45876  -0.39275  -0.39275   0.45565
  34        3PZ        -0.45876   0.39275   0.45565  -0.39275
          Condensed to atoms (all electrons):
               1          2          3          4          5
     1  C    4.541913   0.405607   0.405607   0.405607   0.405607
     2  H    0.405607   0.616723  -0.021139  -0.021139  -0.021139
     3  H    0.405607  -0.021139   0.616723  -0.021139  -0.021139
     4  H    0.405607  -0.021139  -0.021139   0.616723  -0.021139
     5  H    0.405607  -0.021139  -0.021139  -0.021139   0.616723
 Mulliken charges:
               1
     1  C   -0.164341
     2  H    0.041085
     3  H    0.041085
     4  H    0.041085
     5  H    0.041085
 Sum of Mulliken charges =   0.00000
 Mulliken charges with hydrogens summed into heavy atoms:
               1
     1  C    0.000000
 Electronic spatial extent (au):  <R**2>=             35.5327
 Charge=              0.0000 electrons
 Dipole moment (field-independent basis, Debye):
    X=             -0.0000    Y=             -0.0000    Z=              0.0000  Tot=              0.0000
 Quadrupole moment (field-independent basis, Debye-Ang):
   XX=             -8.2957   YY=             -8.2957   ZZ=             -8.2957
   XY=              0.0000   XZ=             -0.0000   YZ=              0.0000
 Traceless Quadrupole moment (field-independent basis, Debye-Ang):
   XX=              0.0000   YY=             -0.0000   ZZ=              0.0000
   XY=              0.0000   XZ=             -0.0000   YZ=              0.0000
 Octapole moment (field-independent basis, Debye-Ang**2):
  XXX=             -0.0000  YYY=              0.0000  ZZZ=              0.0000  XYY=              0.0000
  XXY=             -0.0000  XXZ=              0.0000  XZZ=             -0.0000  YZZ=             -0.0000
  YYZ=             -0.0000  XYZ=              0.6031
 Hexadecapole moment (field-independent basis, Debye-Ang**3):
 XXXX=            -16.0805 YYYY=            -16.0805 ZZZZ=            -16.0805 XXXY=              0.0000
 XXXZ=             -0.0000 YYYX=             -0.0000 YYYZ=              0.0000 ZZZX=              0.0000
 ZZZY=              0.0000 XXYY=             -4.9137 XXZZ=             -4.9137 YYZZ=             -4.9137
 XXYZ=              0.0000 YYXZ=             -0.0000 ZZXY=             -0.0000
 N-N= 1.341226063863D+01 E-N=-1.195821860757D+02  KE= 3.984809690021D+01
 Symmetry A    KE= 3.414180139948D+01
 Symmetry B1   KE= 1.902098500245D+00
 Symmetry B2   KE= 1.902098500245D+00
 Symmetry B3   KE= 1.902098500245D+00
 Orbital energies and kinetic energies (alpha):
                                 1                 2
   1         (A1)--O          -9.880445         15.720384
   2         (A1)--O          -0.616575          1.350517
   3         (T2)--O          -0.342762          0.951049
   4         (T2)--O          -0.342762          0.951049
   5         (T2)--O          -0.342762          0.951049
   6         (A1)--V           0.055562          0.709426
   7         (T2)--V           0.122196          0.742557
   8         (T2)--V           0.122196          0.742557
   9         (T2)--V           0.122196          0.742557
  10         (T2)--V           0.387867          1.132844
  11         (T2)--V           0.387867          1.132844
  12         (T2)--V           0.387867          1.132844
  13         (A1)--V           0.611766          2.736268
  14         (T2)--V           0.637326          2.203491
  15         (T2)--V           0.637326          2.203491
  16         (T2)--V           0.637326          2.203491
  17         (A1)--V           0.738716          1.605312
  18         (E)--V            1.034853          1.895400
  19         (E)--V            1.034853          1.895400
  20         (T1)--V           1.470730          2.186914
  21         (T1)--V           1.470730          2.186914
  22         (T1)--V           1.470730          2.186914
  23         (T2)--V           1.697934          2.588776
  24         (T2)--V           1.697934          2.588776
  25         (T2)--V           1.697934          2.588776
  26         (T2)--V           2.064965          3.139681
  27         (T2)--V           2.064965          3.139681
  28         (T2)--V           2.064965          3.139681
  29         (E)--V            2.450903          3.558487
  30         (E)--V            2.450903          3.558487
  31         (A1)--V           2.530188          4.702454
  32         (T2)--V           2.831998          4.651543
  33         (T2)--V           2.831998          4.651543
  34         (T2)--V           2.831998          4.651543
 Total kinetic energy from orbitals= 3.984809690021D+01
 No NMR shielding tensors so no spin-rotation constants.
 Leave Link  601 at Mon Jan 22 14:53:52 2018, MaxMem=  1048576000 cpu:         0.3
 (Enter /home/chemsoft/gaussian/g09e01/g09/l701.exe)
 Compute integral first derivatives.
 ... and contract with generalized density number  0.
  24 Symmetry operations used in ECPInt.
 ECPInt:  NShTT=     171 NPrTT=     553 LenC2=     172 LenP2D=     539.
 LDataN:  DoStor=T MaxTD1= 5 Len=  102
 Leave Link  701 at Mon Jan 22 14:53:52 2018, MaxMem=  1048576000 cpu:         0.5
 (Enter /home/chemsoft/gaussian/g09e01/g09/l702.exe)
 L702 exits ... SP integral derivatives will be done elsewhere.
 Leave Link  702 at Mon Jan 22 14:53:53 2018, MaxMem=  1048576000 cpu:         0.1
 (Enter /home/chemsoft/gaussian/g09e01/g09/l703.exe)
 Compute integral first derivatives, UseDBF=T ICtDFT=           0.
 Integral derivatives from FoFJK, PRISM(SPDF).
 Calling FoFJK, ICntrl=      2527 FMM=F ISym2X=1 I1Cent= 4 IOpClX= 0 NMat=1 NMatS=1 NMatT=0.
 FoFJK:  IHMeth= 1 ICntrl=    2527 DoSepK=F KAlg= 0 I1Cent=   4 FoldK=F
 IRaf=         0 NMat=   1 IRICut=       1 DoRegI=T DoRafI=F ISym2E= 1.
 FoFCou: FMM=F IPFlag=           0 FMFlag=      100000 FMFlg1=         800
         NFxFlg=           0 DoJE=F BraDBF=F KetDBF=T FulRan=T
         wScrn=  0.000000 ICntrl=    2527 IOpCl=  0 I1Cent=           4 NGrid=           0
         NMat0=    1 NMatS0=      1 NMatT0=    0 NMatD0=    1 NMtDS0=    0 NMtDT0=    0
 Petite list used in FoFCou.
 Leave Link  703 at Mon Jan 22 14:53:53 2018, MaxMem=  1048576000 cpu:         0.9
 (Enter /home/chemsoft/gaussian/g09e01/g09/l716.exe)
 Dipole        =-2.22044605D-16 0.00000000D+00 0.00000000D+00
 ***** Axes restored to original set *****
 -------------------------------------------------------------------
 Center     Atomic                   Forces (Hartrees/Bohr)
 Number     Number              X              Y              Z
 -------------------------------------------------------------------
      1        6           0.000000000   -0.000000000   -0.000000000
      2        1           0.005361213    0.005361213    0.005361213
      3        1           0.005361213   -0.005361213   -0.005361213
      4        1          -0.005361213    0.005361213   -0.005361213
      5        1          -0.005361213   -0.005361213    0.005361213
 -------------------------------------------------------------------
 Cartesian Forces:  Max     0.005361213 RMS     0.004795215
 Leave Link  716 at Mon Jan 22 14:53:53 2018, MaxMem=  1048576000 cpu:         0.1
 (Enter /home/chemsoft/gaussian/g09e01/g09/l103.exe)

 GradGradGradGradGradGradGradGradGradGradGradGradGradGradGradGradGradGrad
 Berny optimization.
 FormGI is forming the generalized inverse of G from B-inverse, IUseBI=4.
 Internal  Forces:  Max     0.009285893 RMS     0.004963519
 Search for a local minimum.
 Step number   1 out of a maximum of  100
 All quantities printed in internal units (Hartrees-Bohrs-Radians)
 RMS Force = .49635D-02 SwitMx=.10000D-02 MixMth= 1
 Mixed Optimization -- RFO/linear search
 Second derivative matrix not updated -- first step.
 The second derivative matrix:
                          R1        R2        R3        R4        A1
           R1           0.34596
           R2           0.00000   0.34596
           R3           0.00000   0.00000   0.34596
           R4           0.00000   0.00000   0.00000   0.34596
           A1           0.00000   0.00000   0.00000   0.00000   0.16000
           A2           0.00000   0.00000   0.00000   0.00000   0.00000
           A3           0.00000   0.00000   0.00000   0.00000   0.00000
           A4           0.00000   0.00000   0.00000   0.00000   0.00000
           A5           0.00000   0.00000   0.00000   0.00000   0.00000
           A6           0.00000   0.00000   0.00000   0.00000   0.00000
           D1           0.00000   0.00000   0.00000   0.00000   0.00000
           D2           0.00000   0.00000   0.00000   0.00000   0.00000
           D3           0.00000   0.00000   0.00000   0.00000   0.00000
           D4           0.00000   0.00000   0.00000   0.00000   0.00000
                          A2        A3        A4        A5        A6
           A2           0.16000
           A3           0.00000   0.16000
           A4           0.00000   0.00000   0.16000
           A5           0.00000   0.00000   0.00000   0.16000
           A6           0.00000   0.00000   0.00000   0.00000   0.16000
           D1           0.00000   0.00000   0.00000   0.00000   0.00000
           D2           0.00000   0.00000   0.00000   0.00000   0.00000
           D3           0.00000   0.00000   0.00000   0.00000   0.00000
           D4           0.00000   0.00000   0.00000   0.00000   0.00000
                          D1        D2        D3        D4
           D1           0.00230
           D2           0.00000   0.00230
           D3           0.00000   0.00000   0.00230
           D4           0.00000   0.00000   0.00000   0.00230
 ITU=  0
     Eigenvalues ---    0.05082   0.05715   0.08641   0.16000   0.16000
     Eigenvalues ---    0.34596   0.34596   0.34596   0.34596
 RFO step:  Lambda=-9.94094694D-04 EMin= 5.08230769D-02
 Linear search not attempted -- first point.
 Iteration  1 RMS(Cart)=  0.01430585 RMS(Int)=  0.00000000
 Iteration  2 RMS(Cart)=  0.00000000 RMS(Int)=  0.00000000
 ITry= 1 IFail=0 DXMaxC= 1.55D-02 DCOld= 1.00D+10 DXMaxT= 3.00D-01 DXLimC= 3.00D+00 Rises=F
 ClnCor:  largest displacement from symmetrization is 9.54D-15 for atom     3.
 Variable       Old X    -DE/DX   Delta X   Delta X   Delta X     New X
                                 (Linear)    (Quad)   (Total)
    R1        2.06335   0.00929   0.00000   0.02676   0.02676   2.09012
    R2        2.06335   0.00929   0.00000   0.02676   0.02676   2.09012
    R3        2.06335   0.00929   0.00000   0.02676   0.02676   2.09012
    R4        2.06335   0.00929   0.00000   0.02676   0.02676   2.09012
    A1        1.91063   0.00000   0.00000   0.00000  -0.00000   1.91063
    A2        1.91063  -0.00000   0.00000  -0.00000   0.00000   1.91063
    A3        1.91063   0.00000   0.00000   0.00000   0.00000   1.91063
    A4        1.91063   0.00000   0.00000   0.00000   0.00000   1.91063
    A5        1.91063  -0.00000   0.00000   0.00000   0.00000   1.91063
    A6        1.91063  -0.00000   0.00000  -0.00000  -0.00000   1.91063
    D1        2.09440  -0.00000   0.00000  -0.00000  -0.00000   2.09440
    D2       -2.09440  -0.00000   0.00000  -0.00000   0.00000  -2.09440
    D3        2.09440  -0.00000   0.00000  -0.00000   0.00000   2.09440
    D4       -2.09440  -0.00000   0.00000  -0.00000   0.00000  -2.09440
         Item               Value     Threshold  Converged?
 Maximum Force            0.009286     0.000450     NO 
 RMS     Force            0.004964     0.000300     NO 
 Maximum Displacement     0.015452     0.001800     NO 
 RMS     Displacement     0.014306     0.001200     NO 
 Predicted change in Energy=-4.984756D-04
 Lowest energy point so far.  Saving SCF results.
 GradGradGradGradGradGradGradGradGradGradGradGradGradGradGradGradGradGrad

 Leave Link  103 at Mon Jan 22 14:53:53 2018, MaxMem=  1048576000 cpu:         0.1
 (Enter /home/chemsoft/gaussian/g09e01/g09/l202.exe)
                          Input orientation:                          
 ---------------------------------------------------------------------
 Center     Atomic      Atomic             Coordinates (Angstroms)
 Number     Number       Type             X           Y           Z
 ---------------------------------------------------------------------
      1          6           0       -0.000000   -0.000000   -0.000000
      2          1           0        0.638574    0.638574    0.638574
      3          1           0        0.638574   -0.638574   -0.638574
      4          1           0       -0.638574    0.638574   -0.638574
      5          1           0       -0.638574   -0.638574    0.638574
 ---------------------------------------------------------------------
                    Distance matrix (angstroms):
                    1          2          3          4          5
     1  C    0.000000
     2  H    1.106042   0.000000
     3  H    1.106042   1.806160   0.000000
     4  H    1.106042   1.806160   1.806160   0.000000
     5  H    1.106042   1.806160   1.806160   1.806160   0.000000
 Stoichiometry    CH4
 Framework group  TD[O(C),4C3(H)]
 Deg. of freedom     1
 Full point group                 TD      NOp  24
 RotChk:  IX=0 Diff= 2.72D-16
 Largest Abelian subgroup         D2      NOp   4
 Largest concise Abelian subgroup D2      NOp   4
                         Standard orientation:                         
 ---------------------------------------------------------------------
 Center     Atomic      Atomic             Coordinates (Angstroms)
 Number     Number       Type             X           Y           Z
 ---------------------------------------------------------------------
      1          6           0        0.000000    0.000000    0.000000
      2          1           0        0.638574    0.638574    0.638574
      3          1           0       -0.638574   -0.638574    0.638574
      4          1           0        0.638574   -0.638574   -0.638574
      5          1           0       -0.638574    0.638574   -0.638574
 ---------------------------------------------------------------------
 Rotational constants (GHZ):    153.7162396    153.7162396    153.7162396
 Leave Link  202 at Mon Jan 22 14:53:53 2018, MaxMem=  1048576000 cpu:         0.0
 (Enter /home/chemsoft/gaussian/g09e01/g09/l301.exe)
 Standard basis: def2SVP (5D, 7F)
 Ernie: Thresh=  0.10000D-02 Tol=  0.10000D-05 Strict=F.
 There are    11 symmetry adapted cartesian basis functions of A   symmetry.
 There are     8 symmetry adapted cartesian basis functions of B1  symmetry.
 There are     8 symmetry adapted cartesian basis functions of B2  symmetry.
 There are     8 symmetry adapted cartesian basis functions of B3  symmetry.
 There are    10 symmetry adapted basis functions of A   symmetry.
 There are     8 symmetry adapted basis functions of B1  symmetry.
 There are     8 symmetry adapted basis functions of B2  symmetry.
 There are     8 symmetry adapted basis functions of B3  symmetry.
    34 basis functions,    53 primitive gaussians,    35 cartesian basis functions
     5 alpha electrons        5 beta electrons
       nuclear repulsion energy        13.2405176631 Hartrees.
 IExCor= 1009 DFT=T Ex=PBE Corr=PBE ExCW=0 ScaHFX=  0.000000
 ScaDFX=  1.000000  1.000000  1.000000  1.000000 ScalE2=  1.000000  1.000000
 IRadAn=      5 IRanWt=     -1 IRanGd=            0 ICorTp=0 IEmpDi=  4
 NAtoms=    5 NActive=    5 NUniq=    2 SFac= 4.00D+00 NAtFMM=   60 NAOKFM=F Big=F
 Integral buffers will be    131072 words long.
 Raffenetti 2 integral format.
 Two-electron integral symmetry is turned on.
 Standard density basis: W06 (5D, 7F)
    93 Density fitting functions
 There are    93 symmetry adapted density basis functions of A   symmetry.
 Leave Link  301 at Mon Jan 22 14:53:53 2018, MaxMem=  1048576000 cpu:         0.4
 (Enter /home/chemsoft/gaussian/g09e01/g09/l302.exe)
 NPDir=0 NMtPBC=     1 NCelOv=     1 NCel=       1 NClECP=     1 NCelD=      1
         NCelK=      1 NCelE2=     1 NClLst=     1 CellRange=     0.0.
 One-electron integrals computed using PRISM.
 One-electron integral symmetry used in STVInt
  24 Symmetry operations used in ECPInt.
 ECPInt:  NShTT=     171 NPrTT=     553 LenC2=     172 LenP2D=     539.
 LDataN:  DoStor=T MaxTD1= 4 Len=   56
 NBasis=    34 RedAO= T EigKep=  1.89D-02  NBF=    10     8     8     8
 NBsUse=    34 1.00D-06 EigRej= -1.00D+00 NBFU=    10     8     8     8
 NBasis=       34 NBas6D=       35 NTT=         595   NTT6D=      630
 NDBShl=       35 NDBF=         93 NDBF6D=      109  NNucDB=        0
 IDenFi=        2 ISolve=        0 FullAP=F BlkAPC=T NucTyp=        0
 TolInv= 1.00D-06 TolIt=  1.00D-10 IR12=0.
 FoFCou: FMM=F IPFlag=           0 FMFlag=           0 FMFlg1=           0
         NFxFlg=           0 DoJE=F BraDBF=T KetDBF=T FulRan=T
         wScrn=  0.000000 ICntrl=     600 IOpCl=  3 I1Cent=           6 NGrid=           0
         NMat0=    1 NMatS0=    109 NMatT0=    0 NMatD0=    1 NMtDS0=    0 NMtDT0=    0
 Petite list used in FoFCou.
 DBF EigKep=  8.56D-05 EigRej= -1.00D+00
 NDBF=     93  NBFD=    93
 NRank=    93 NBFDU=    93
 S*AI*S=  5.10002577370    
 Precomputing XC quadrature grid using
 IXCGrd= 4 IRadAn=           5 IRanWt=          -1 IRanGd=           0 AccXCQ= 0.00D+00.
 Generated NRdTot=       0 NPtTot=           0 NUsed=           0 NTot=          32
 NSgBfM=    35    35    35    35    35 MxSgAt=     5 MxSgA2=     5.
 Leave Link  302 at Mon Jan 22 14:53:54 2018, MaxMem=  1048576000 cpu:         0.7
 (Enter /home/chemsoft/gaussian/g09e01/g09/l303.exe)
 DipDrv:  MaxL=1.
 Leave Link  303 at Mon Jan 22 14:53:54 2018, MaxMem=  1048576000 cpu:         0.1
 (Enter /home/chemsoft/gaussian/g09e01/g09/l401.exe)
 Initial guess from the checkpoint file:  "methane.df-pbesvp.chk"
 B after Tr=     0.000000    0.000000    0.000000
         Rot=    1.000000    0.000000   -0.000000    0.000000 Ang=   0.00 deg.
 Guess basis will be translated and rotated to current coordinates.
 Recovered     1 saved fitting vectors from chk file.
 JPrj=2 DoOrth=T DoCkMO=T.
 Initial guess orbital symmetries:
       Occupied  (A1) (A1) (T2) (T2) (T2)
       Virtual   (A1) (E) (E) (A1) (A1) (E) (E) (A1) (T2) (T2)
                 (T2) (T1) (T2) (T2) (T2) (T2) (T2) (T2) (T1) (T2)
                 (T2) (T2) (T2) (T2) (T2) (T1) (T2) (T2) (T2)
 The electronic state of the initial guess is 1-A1.
 Leave Link  401 at Mon Jan 22 14:53:54 2018, MaxMem=  1048576000 cpu:         0.3
 (Enter /home/chemsoft/gaussian/g09e01/g09/l502.exe)
 Closed shell SCF:
 Density fitting will be used, IDenFit= 2 NucTyp=  0.
 Using DIIS extrapolation, IDIIS=  1040.
 Integral symmetry usage will be decided dynamically.
 IVT=      259551 IEndB=      259551 NGot=  1048576000 MDV=  1048568710
 LenX=  1048568710 LenY=  1048567044
 Requested convergence on RMS density matrix=1.00D-08 within 500 cycles.
 Requested convergence on MAX density matrix=1.00D-06.
 Requested convergence on             energy=1.00D-06.
 No special actions if energy rises.
 Fock matrices will be formed incrementally for  20 cycles.

 Cycle   1  Pass 1  IDiag  1:
 FoFCou: FMM=F IPFlag=           0 FMFlag=      100000 FMFlg1=           0
         NFxFlg=           0 DoJE=T BraDBF=T KetDBF=F FulRan=T
         wScrn=  0.000000 ICntrl=     500 IOpCl=  0 I1Cent=           5 NGrid=           0
         NMat0=    1 NMatS0=      1 NMatT0=    0 NMatD0=    1 NMtDS0=    0 NMtDT0=    0
 Petite list used in FoFCou.
 FoFJK:  IHMeth= 1 ICntrl=     500 DoSepK=F KAlg= 0 I1Cent=   4 FoldK=F
 IRaf= 990000000 NMat=   1 IRICut=       1 DoRegI=T DoRafI=F ISym2E= 1.
 E= -40.4150752404213    
 DIIS: error= 2.31D-03 at cycle   1 NSaved=   1.
 NSaved= 1 IEnMin= 1 EnMin= -40.4150752404213     IErMin= 1 ErrMin= 2.31D-03
 ErrMax= 2.31D-03  0.00D+00 EMaxC= 1.00D-01 BMatC= 9.46D-05 BMatP= 9.46D-05
 IDIUse=3 WtCom= 9.77D-01 WtEn= 2.31D-02
 Coeff-Com:  0.100D+01
 Coeff-En:   0.100D+01
 Coeff:      0.100D+01
 Gap=     0.731 Goal=   None    Shift=    0.000
 GapD=    0.731 DampG=2.000 DampE=1.000 DampFc=2.0000 IDamp=-1.
 RMSDP=4.89D-04 MaxDP=5.27D-03              OVMax= 4.68D-03

 Cycle   2  Pass 1  IDiag  1:
 RMSU=  4.84D-04    CP:  9.98D-01
 E= -40.4151282216956     Delta-E=       -0.000052981274 Rises=F Damp=F
 DIIS: error= 1.57D-03 at cycle   2 NSaved=   2.
 NSaved= 2 IEnMin= 2 EnMin= -40.4151282216956     IErMin= 2 ErrMin= 1.57D-03
 ErrMax= 1.57D-03  0.00D+00 EMaxC= 1.00D-01 BMatC= 4.37D-05 BMatP= 9.46D-05
 IDIUse=3 WtCom= 9.84D-01 WtEn= 1.57D-02
 Coeff-Com:  0.368D+00 0.632D+00
 Coeff-En:   0.199D+00 0.801D+00
 Coeff:      0.365D+00 0.635D+00
 Gap=     0.394 Goal=   None    Shift=    0.000
 RMSDP=2.68D-04 MaxDP=3.08D-03 DE=-5.30D-05 OVMax= 3.45D-03

 Cycle   3  Pass 1  IDiag  1:
 RMSU=  2.20D-04    CP:  9.99D-01  7.00D-01
 E= -40.4151604322093     Delta-E=       -0.000032210514 Rises=F Damp=F
 DIIS: error= 9.23D-04 at cycle   3 NSaved=   3.
 NSaved= 3 IEnMin= 3 EnMin= -40.4151604322093     IErMin= 3 ErrMin= 9.23D-04
 ErrMax= 9.23D-04  0.00D+00 EMaxC= 1.00D-01 BMatC= 1.66D-05 BMatP= 4.37D-05
 IDIUse=3 WtCom= 9.91D-01 WtEn= 9.23D-03
 Coeff-Com:  0.325D-01 0.379D+00 0.588D+00
 Coeff-En:   0.000D+00 0.284D+00 0.716D+00
 Coeff:      0.322D-01 0.379D+00 0.589D+00
 Gap=     0.394 Goal=   None    Shift=    0.000
 RMSDP=9.41D-05 MaxDP=1.20D-03 DE=-3.22D-05 OVMax= 1.23D-03

 Cycle   4  Pass 1  IDiag  1:
 RMSU=  2.10D-05    CP:  9.99D-01  7.86D-01  6.35D-01
 E= -40.4151777614540     Delta-E=       -0.000017329245 Rises=F Damp=F
 DIIS: error= 1.40D-05 at cycle   4 NSaved=   4.
 NSaved= 4 IEnMin= 4 EnMin= -40.4151777614540     IErMin= 4 ErrMin= 1.40D-05
 ErrMax= 1.40D-05  0.00D+00 EMaxC= 1.00D-01 BMatC= 5.07D-09 BMatP= 1.66D-05
 IDIUse=1 WtCom= 1.00D+00 WtEn= 0.00D+00
 Coeff-Com:  0.468D-03 0.457D-01 0.636D-01 0.890D+00
 Coeff:      0.468D-03 0.457D-01 0.636D-01 0.890D+00
 Gap=     0.394 Goal=   None    Shift=    0.000
 RMSDP=3.22D-06 MaxDP=2.30D-05 DE=-1.73D-05 OVMax= 3.42D-05

 Cycle   5  Pass 1  IDiag  1:
 RMSU=  1.55D-07    CP:  9.99D-01  7.90D-01  6.30D-01  8.94D-01
 E= -40.4151777698025     Delta-E=       -0.000000008349 Rises=F Damp=F
 DIIS: error= 7.05D-08 at cycle   5 NSaved=   5.
 NSaved= 5 IEnMin= 5 EnMin= -40.4151777698025     IErMin= 5 ErrMin= 7.05D-08
 ErrMax= 7.05D-08  0.00D+00 EMaxC= 1.00D-01 BMatC= 9.28D-14 BMatP= 5.07D-09
 IDIUse=1 WtCom= 1.00D+00 WtEn= 0.00D+00
 Coeff-Com: -0.769D-05-0.282D-03-0.425D-03-0.760D-02 0.101D+01
 Coeff:     -0.769D-05-0.282D-03-0.425D-03-0.760D-02 0.101D+01
 Gap=     0.394 Goal=   None    Shift=    0.000
 RMSDP=7.41D-09 MaxDP=6.53D-08 DE=-8.35D-09 OVMax= 1.01D-07

 SCF Done:  E(RPBE-PBE) =  -40.4151777698     A.U. after    5 cycles
            NFock=  5  Conv=0.74D-08     -V/T= 2.0159
 KE= 3.978095145022D+01 PE=-1.191949567616D+02 EE= 2.575830987850D+01
 Leave Link  502 at Mon Jan 22 14:53:57 2018, MaxMem=  1048576000 cpu:         4.9
 (Enter /home/chemsoft/gaussian/g09e01/g09/l508.exe)
 QCSCF skips out because SCF is already converged.
 Leave Link  508 at Mon Jan 22 14:53:57 2018, MaxMem=  1048576000 cpu:         0.0
 (Enter /home/chemsoft/gaussian/g09e01/g09/l701.exe)
 Compute integral first derivatives.
 ... and contract with generalized density number  0.
  24 Symmetry operations used in ECPInt.
 ECPInt:  NShTT=     171 NPrTT=     553 LenC2=     172 LenP2D=     539.
 LDataN:  DoStor=T MaxTD1= 5 Len=  102
 Leave Link  701 at Mon Jan 22 14:53:57 2018, MaxMem=  1048576000 cpu:         0.4
 (Enter /home/chemsoft/gaussian/g09e01/g09/l702.exe)
 L702 exits ... SP integral derivatives will be done elsewhere.
 Leave Link  702 at Mon Jan 22 14:53:57 2018, MaxMem=  1048576000 cpu:         0.1
 (Enter /home/chemsoft/gaussian/g09e01/g09/l703.exe)
 Compute integral first derivatives, UseDBF=T ICtDFT=           0.
[...]
  16        2S         -1.02929  -1.11654  -1.11654  -1.11654   0.12573
  17        3PX        -0.00528   0.00410  -0.00807  -0.00807  -0.01408
  18        3PY        -0.00528  -0.00807   0.00410  -0.00807   0.03278
  19        3PZ        -0.00528  -0.00807  -0.00807   0.00410  -0.01408
  20 3   H  1S         -0.03797   0.09281   0.09281  -0.09281   0.50979
  21        2S         -1.02929   1.11654   1.11654  -1.11654  -0.12573
  22        3PX         0.00528   0.00410  -0.00807   0.00807  -0.01408
  23        3PY         0.00528  -0.00807   0.00410   0.00807   0.03278
  24        3PZ        -0.00528   0.00807   0.00807   0.00410   0.01408
  25 4   H  1S         -0.03797  -0.09281   0.09281   0.09281   0.50979
  26        2S         -1.02929  -1.11654   1.11654   1.11654  -0.12573
  27        3PX        -0.00528   0.00410   0.00807   0.00807   0.01408
  28        3PY         0.00528   0.00807   0.00410  -0.00807   0.03278
  29        3PZ         0.00528   0.00807  -0.00807   0.00410  -0.01408
  30 5   H  1S         -0.03797   0.09281  -0.09281   0.09281  -0.50979
  31        2S         -1.02929   1.11654  -1.11654   1.11654   0.12573
  32        3PX         0.00528   0.00410   0.00807  -0.00807   0.01408
  33        3PY        -0.00528   0.00807   0.00410   0.00807   0.03278
  34        3PZ         0.00528  -0.00807   0.00807   0.00410   0.01408
                          11        12        13        14        15
                        (T2)--V   (T2)--V   (A1)--V   (T2)--V   (T2)--V
     Eigenvalues --     0.38877   0.38877   0.60034   0.63015   0.63015
   1 1   C  1S          0.00000   0.00000   0.30118   0.00000   0.00000
   2        2S          0.00000   0.00000  -1.77682   0.00000   0.00000
   3        3S          0.00000   0.00000   4.13945   0.00000   0.00000
   4        4PX         0.00000  -0.29899   0.00000   0.00000  -0.93575
   5        4PY         0.00000   0.00000   0.00000  -0.93575   0.00000
   6        4PZ        -0.29899   0.00000   0.00000   0.00000   0.00000
   7        5PX         0.00000   1.12861   0.00000   0.00000   1.67637
   8        5PY         0.00000   0.00000   0.00000   1.67637   0.00000
   9        5PZ         1.12861   0.00000   0.00000   0.00000   0.00000
  10        6D 0        0.00000   0.00000   0.00000   0.00000   0.00000
  11        6D+1        0.00000   0.00000   0.00000   0.13528   0.00000
  12        6D-1        0.00000  -0.09050   0.00000   0.00000   0.13528
  13        6D+2        0.00000   0.00000  -0.00000   0.00000   0.00000
  14        6D-2       -0.09050   0.00000   0.00000   0.00000   0.00000
  15 2   H  1S         -0.50979  -0.50979   0.40657   0.32916   0.32916
  16        2S          0.12573   0.12573  -1.11603  -1.10687  -1.10687
  17        3PX        -0.01408   0.03278   0.05868   0.07425   0.01933
  18        3PY        -0.01408  -0.01408   0.05868   0.01933   0.07425
  19        3PZ         0.03278  -0.01408   0.05868   0.07425   0.07425
  20 3   H  1S         -0.50979   0.50979   0.40657  -0.32916  -0.32916
  21        2S          0.12573  -0.12573  -1.11603   1.10687   1.10687
  22        3PX         0.01408   0.03278  -0.05868   0.07425   0.01933
  23        3PY         0.01408  -0.01408  -0.05868   0.01933   0.07425
  24        3PZ         0.03278   0.01408   0.05868  -0.07425  -0.07425
  25 4   H  1S          0.50979  -0.50979   0.40657  -0.32916   0.32916
  26        2S         -0.12573   0.12573  -1.11603   1.10687  -1.10687
  27        3PX         0.01408   0.03278   0.05868  -0.07425   0.01933
  28        3PY        -0.01408   0.01408  -0.05868   0.01933  -0.07425
  29        3PZ         0.03278   0.01408  -0.05868   0.07425  -0.07425
  30 5   H  1S          0.50979   0.50979   0.40657   0.32916  -0.32916
  31        2S         -0.12573  -0.12573  -1.11603  -1.10687   1.10687
  32        3PX        -0.01408   0.03278  -0.05868  -0.07425   0.01933
  33        3PY         0.01408   0.01408   0.05868   0.01933  -0.07425
  34        3PZ         0.03278  -0.01408  -0.05868  -0.07425   0.07425
                          16        17        18        19        20
                        (T2)--V   (A1)--V   (E)--V    (E)--V    (T1)--V
     Eigenvalues --     0.63015   0.73111   1.03681   1.03681   1.46140
   1 1   C  1S          0.00000   0.11179   0.00000  -0.00000   0.00000
   2        2S          0.00000  -1.50101  -0.00000   0.00000   0.00000
   3        3S          0.00000   5.24507   0.00000  -0.00000   0.00000
   4        4PX         0.00000   0.00000   0.00000   0.00000   0.00000
   5        4PY         0.00000   0.00000   0.00000   0.00000   0.00000
   6        4PZ        -0.93575   0.00000   0.00000   0.00000   0.00000
   7        5PX         0.00000   0.00000   0.00000   0.00000   0.00000
   8        5PY         0.00000   0.00000   0.00000   0.00000   0.00000
   9        5PZ         1.67637   0.00000   0.00000   0.00000   0.00000
  10        6D 0        0.00000   0.00000   0.00557   0.39431   0.00000
  11        6D+1        0.00000   0.00000   0.00000   0.00000   0.00000
  12        6D-1        0.00000   0.00000   0.00000   0.00000   0.00000
  13        6D+2        0.00000  -0.00000   0.39431  -0.00557   0.00000
  14        6D-2        0.13528   0.00000   0.00000   0.00000  -0.00000
  15 2   H  1S          0.32916  -0.66447  -0.00000   0.00000  -0.00000
  16        2S         -1.10687  -0.86998  -0.00000   0.00000  -0.00000
  17        3PX         0.07425  -0.01995   0.25358  -0.15122   0.36343
  18        3PY         0.07425  -0.01995  -0.25775  -0.14400  -0.36343
  19        3PZ         0.01933  -0.01995   0.00417   0.29521  -0.00000
  20 3   H  1S          0.32916  -0.66447  -0.00000   0.00000  -0.00000
  21        2S         -1.10687  -0.86998  -0.00000   0.00000  -0.00000
  22        3PX        -0.07425   0.01995  -0.25358   0.15122  -0.36343
  23        3PY        -0.07425   0.01995   0.25775   0.14400   0.36343
  24        3PZ         0.01933  -0.01995   0.00417   0.29521  -0.00000
  25 4   H  1S         -0.32916  -0.66447  -0.00000   0.00000   0.00000
  26        2S          1.10687  -0.86998  -0.00000   0.00000   0.00000
  27        3PX        -0.07425  -0.01995   0.25358  -0.15122  -0.36343
  28        3PY         0.07425   0.01995   0.25775   0.14400  -0.36343
  29        3PZ         0.01933   0.01995  -0.00417  -0.29521  -0.00000
  30 5   H  1S         -0.32916  -0.66447  -0.00000   0.00000   0.00000
  31        2S          1.10687  -0.86998  -0.00000   0.00000   0.00000
  32        3PX         0.07425   0.01995  -0.25358   0.15122   0.36343
  33        3PY        -0.07425  -0.01995  -0.25775  -0.14400   0.36343
  34        3PZ         0.01933   0.01995  -0.00417  -0.29521  -0.00000
                          21        22        23        24        25
                        (T1)--V   (T1)--V   (T2)--V   (T2)--V   (T2)--V
     Eigenvalues --     1.46140   1.46140   1.68310   1.68310   1.68310
   1 1   C  1S          0.00000   0.00000   0.00000   0.00000   0.00000
   2        2S          0.00000   0.00000   0.00000   0.00000   0.00000
   3        3S          0.00000   0.00000   0.00000   0.00000   0.00000
   4        4PX         0.00000   0.00000   0.00000   0.00000  -0.23113
   5        4PY         0.00000  -0.00000  -0.23113   0.00000   0.00000
   6        4PZ         0.00000   0.00000   0.00000  -0.23113   0.00000
   7        5PX         0.00000   0.00000   0.00000   0.00000   0.89303
   8        5PY         0.00000  -0.00000   0.89303   0.00000   0.00000
   9        5PZ         0.00000   0.00000   0.00000   0.89303   0.00000
  10        6D 0        0.00000   0.00000   0.00000   0.00000   0.00000
  11        6D+1        0.00000   0.00000   0.35702   0.00000   0.00000
  12        6D-1       -0.00000   0.00000   0.00000   0.00000   0.35702
  13        6D+2        0.00000   0.00000   0.00000   0.00000   0.00000
  14        6D-2        0.00000   0.00000   0.00000   0.35702   0.00000
  15 2   H  1S         -0.00000   0.00000  -0.26349  -0.26349  -0.26349
  16        2S         -0.00000   0.00000  -0.07612  -0.07612  -0.07612
  17        3PX        -0.00000   0.36343  -0.01785  -0.01785  -0.45972
  18        3PY         0.36343   0.00000  -0.45972  -0.01785  -0.01785
  19        3PZ        -0.36343  -0.36343  -0.01785  -0.45972  -0.01785
  20 3   H  1S          0.00000  -0.00000   0.26349  -0.26349   0.26349
  21        2S          0.00000  -0.00000   0.07612  -0.07612   0.07612
  22        3PX        -0.00000   0.36343  -0.01785   0.01785  -0.45972
  23        3PY         0.36343   0.00000  -0.45972   0.01785  -0.01785
  24        3PZ         0.36343   0.36343   0.01785  -0.45972   0.01785
  25 4   H  1S         -0.00000  -0.00000   0.26349   0.26349  -0.26349
  26        2S         -0.00000  -0.00000   0.07612   0.07612  -0.07612
  27        3PX        -0.00000  -0.36343   0.01785   0.01785  -0.45972
  28        3PY        -0.36343   0.00000  -0.45972  -0.01785   0.01785
  29        3PZ         0.36343  -0.36343  -0.01785  -0.45972   0.01785
  30 5   H  1S          0.00000   0.00000  -0.26349   0.26349   0.26349
  31        2S          0.00000   0.00000  -0.07612   0.07612   0.07612
  32        3PX        -0.00000  -0.36343   0.01785  -0.01785  -0.45972
  33        3PY        -0.36343   0.00000  -0.45972   0.01785   0.01785
  34        3PZ        -0.36343   0.36343   0.01785  -0.45972  -0.01785
                          26        27        28        29        30
                        (T2)--V   (T2)--V   (T2)--V   (E)--V    (E)--V
     Eigenvalues --     2.04580   2.04580   2.04580   2.42771   2.42771
   1 1   C  1S          0.00000   0.00000   0.00000  -0.00000   0.00000
   2        2S          0.00000   0.00000   0.00000   0.00000  -0.00000
   3        3S          0.00000   0.00000   0.00000  -0.00000  -0.00000
   4        4PX         0.00000   0.52335   0.00000   0.00000   0.00000
   5        4PY         0.52335   0.00000   0.00000   0.00000   0.00000
   6        4PZ         0.00000   0.00000   0.52335   0.00000   0.00000
   7        5PX         0.00000   0.82339   0.00000   0.00000   0.00000
   8        5PY         0.82339   0.00000   0.00000   0.00000   0.00000
   9        5PZ         0.00000   0.00000   0.82339   0.00000   0.00000
  10        6D 0        0.00000   0.00000   0.00000   0.93341   0.59120
  11        6D+1       -0.40860   0.00000   0.00000   0.00000   0.00000
  12        6D-1        0.00000  -0.40860   0.00000   0.00000   0.00000
  13        6D+2        0.00000   0.00000   0.00000  -0.59120   0.93341
  14        6D-2        0.00000   0.00000  -0.40860   0.00000   0.00000
  15 2   H  1S         -0.11963  -0.11963  -0.11963  -0.00000   0.00000
  16        2S         -0.39921  -0.39921  -0.39921   0.00000   0.00000
  17        3PX         0.38039  -0.22355   0.38039   0.32489  -0.17022
  18        3PY        -0.22355   0.38039   0.38039  -0.01504   0.36647
  19        3PZ         0.38039   0.38039  -0.22355  -0.30986  -0.19626
  20 3   H  1S          0.11963   0.11963  -0.11963  -0.00000   0.00000
  21        2S          0.39921   0.39921  -0.39921   0.00000   0.00000
  22        3PX         0.38039  -0.22355  -0.38039  -0.32489   0.17022
  23        3PY        -0.22355   0.38039  -0.38039   0.01504  -0.36647
  24        3PZ        -0.38039  -0.38039  -0.22355  -0.30986  -0.19626
  25 4   H  1S          0.11963  -0.11963   0.11963  -0.00000   0.00000
  26        2S          0.39921  -0.39921   0.39921   0.00000   0.00000
  27        3PX        -0.38039  -0.22355  -0.38039   0.32489  -0.17022
  28        3PY        -0.22355  -0.38039   0.38039   0.01504  -0.36647
  29        3PZ         0.38039  -0.38039  -0.22355   0.30986   0.19626
  30 5   H  1S         -0.11963   0.11963   0.11963  -0.00000   0.00000
  31        2S         -0.39921   0.39921   0.39921   0.00000   0.00000
  32        3PX        -0.38039  -0.22355   0.38039  -0.32489   0.17022
  33        3PY        -0.22355  -0.38039  -0.38039  -0.01504   0.36647
  34        3PZ        -0.38039   0.38039  -0.22355   0.30986   0.19626
                          31        32        33        34
                        (A1)--V   (T2)--V   (T2)--V   (T2)--V
     Eigenvalues --     2.49013   2.80920   2.80920   2.80920
   1 1   C  1S         -0.30005   0.00000   0.00000   0.00000
   2        2S          1.74606   0.00000   0.00000   0.00000
   3        3S          1.17045   0.00000   0.00000   0.00000
   4        4PX         0.00000   0.00000   1.04500   0.00000
   5        4PY         0.00000   0.00000   0.00000   1.04500
   6        4PZ         0.00000   1.04500   0.00000   0.00000
   7        5PX         0.00000   0.00000   0.61359   0.00000
   8        5PY         0.00000   0.00000   0.00000   0.61359
   9        5PZ         0.00000   0.61359   0.00000   0.00000
  10        6D 0       -0.00000   0.00000   0.00000   0.00000
  11        6D+1        0.00000   0.00000   0.00000   1.35445
  12        6D-1        0.00000   0.00000   1.35445   0.00000
  13        6D+2        0.00000   0.00000   0.00000   0.00000
  14        6D-2        0.00000   1.35445   0.00000   0.00000
  15 2   H  1S         -0.53951  -0.63829  -0.63829  -0.63829
  16        2S         -0.30983  -0.27039  -0.27039  -0.27039
  17        3PX         0.45019   0.38557   0.44398   0.38557
  18        3PY         0.45019   0.38557   0.38557   0.44398
  19        3PZ         0.45019   0.44398   0.38557   0.38557
  20 3   H  1S         -0.53951  -0.63829   0.63829   0.63829
  21        2S         -0.30983  -0.27039   0.27039   0.27039
  22        3PX        -0.45019  -0.38557   0.44398   0.38557
  23        3PY        -0.45019  -0.38557   0.38557   0.44398
  24        3PZ         0.45019   0.44398  -0.38557  -0.38557
  25 4   H  1S         -0.53951   0.63829  -0.63829   0.63829
  26        2S         -0.30983   0.27039  -0.27039   0.27039
  27        3PX         0.45019  -0.38557   0.44398  -0.38557
  28        3PY        -0.45019   0.38557  -0.38557   0.44398
  29        3PZ        -0.45019   0.44398  -0.38557   0.38557
  30 5   H  1S         -0.53951   0.63829   0.63829  -0.63829
  31        2S         -0.30983   0.27039   0.27039  -0.27039
  32        3PX        -0.45019   0.38557   0.44398  -0.38557
  33        3PY         0.45019  -0.38557  -0.38557   0.44398
  34        3PZ        -0.45019   0.44398   0.38557  -0.38557
          Condensed to atoms (all electrons):
               1          2          3          4          5
     1  C    4.569895   0.403100   0.403100   0.403100   0.403100
     2  H    0.403100   0.615737  -0.021470  -0.021470  -0.021470
     3  H    0.403100  -0.021470   0.615737  -0.021470  -0.021470
     4  H    0.403100  -0.021470  -0.021470   0.615737  -0.021470
     5  H    0.403100  -0.021470  -0.021470  -0.021470   0.615737
 Mulliken charges:
               1
     1  C   -0.182294
     2  H    0.045574
     3  H    0.045574
     4  H    0.045574
     5  H    0.045574
 Sum of Mulliken charges =   0.00000
 Mulliken charges with hydrogens summed into heavy atoms:
               1
     1  C    0.000000
 Electronic spatial extent (au):  <R**2>=             36.0633
 Charge=              0.0000 electrons
 Dipole moment (field-independent basis, Debye):
    X=             -0.0000    Y=             -0.0000    Z=             -0.0000  Tot=              0.0000
 Quadrupole moment (field-independent basis, Debye-Ang):
   XX=             -8.3343   YY=             -8.3343   ZZ=             -8.3343
   XY=             -0.0000   XZ=              0.0000   YZ=             -0.0000
 Traceless Quadrupole moment (field-independent basis, Debye-Ang):
   XX=             -0.0000   YY=              0.0000   ZZ=              0.0000
   XY=             -0.0000   XZ=              0.0000   YZ=             -0.0000
 Octapole moment (field-independent basis, Debye-Ang**2):
  XXX=             -0.0000  YYY=             -0.0000  ZZZ=              0.0000  XYY=             -0.0000
  XXY=             -0.0000  XXZ=              0.0000  XZZ=             -0.0000  YZZ=              0.0000
  YYZ=             -0.0000  XYZ=              0.6407
 Hexadecapole moment (field-independent basis, Debye-Ang**3):
 XXXX=            -16.4345 YYYY=            -16.4345 ZZZZ=            -16.4345 XXXY=              0.0000
 XXXZ=              0.0000 YYYX=             -0.0000 YYYZ=             -0.0000 ZZZX=              0.0000
 ZZZY=              0.0000 XXYY=             -5.0059 XXZZ=             -5.0059 YYZZ=             -5.0059
 XXYZ=             -0.0000 YYXZ=              0.0000 ZZXY=              0.0000
 N-N= 1.324051766309D+01 E-N=-1.191949552444D+02  KE= 3.978095145022D+01
 Symmetry A    KE= 3.413197692150D+01
 Symmetry B1   KE= 1.882991509575D+00
 Symmetry B2   KE= 1.882991509575D+00
 Symmetry B3   KE= 1.882991509575D+00
 Orbital energies and kinetic energies (alpha):
                                 1                 2
   1         (A1)--O          -9.885802         15.722198
   2         (A1)--O          -0.612616          1.343790
   3         (T2)--O          -0.340730          0.941496
   4         (T2)--O          -0.340730          0.941496
   5         (T2)--O          -0.340730          0.941496
   6         (A1)--V           0.053152          0.725497
   7         (T2)--V           0.118667          0.754538
   8         (T2)--V           0.118667          0.754538
   9         (T2)--V           0.118667          0.754538
  10         (T2)--V           0.388770          1.134596
  11         (T2)--V           0.388770          1.134596
  12         (T2)--V           0.388770          1.134596
  13         (A1)--V           0.600342          2.703380
  14         (T2)--V           0.630150          2.196762
  15         (T2)--V           0.630150          2.196762
  16         (T2)--V           0.630150          2.196762
  17         (A1)--V           0.731105          1.609759
  18         (E)--V            1.036809          1.893913
  19         (E)--V            1.036809          1.893913
  20         (T1)--V           1.461404          2.173785
  21         (T1)--V           1.461404          2.173785
  22         (T1)--V           1.461404          2.173785
  23         (T2)--V           1.683103          2.576577
  24         (T2)--V           1.683103          2.576577
  25         (T2)--V           1.683103          2.576577
  26         (T2)--V           2.045800          3.095597
  27         (T2)--V           2.045800          3.095597
  28         (T2)--V           2.045800          3.095597
  29         (E)--V            2.427713          3.532220
  30         (E)--V            2.427713          3.532220
  31         (A1)--V           2.490134          4.596469
  32         (T2)--V           2.809201          4.583295
  33         (T2)--V           2.809201          4.583295
  34         (T2)--V           2.809201          4.583295
 Total kinetic energy from orbitals= 3.978095145022D+01
 No NMR shielding tensors so no spin-rotation constants.
 Leave Link  601 at Mon Jan 22 14:53:58 2018, MaxMem=  1048576000 cpu:         0.4
 (Enter /home/chemsoft/gaussian/g09e01/g09/l9999.exe)

 Test job not archived.
 1\1\GINC-LENOX07\FOpt\RPBEPBE\def2SVP/W06\C1H4\MARTIN\22-Jan-2018\0\\#
 P PBEPBE/def2SVP/W06 DenFit opt (MaxCycle=100) scf=(xqc, MaxConvention
 alCycle=500) int = (ultrafinegrid) gfinput gfoldprint iop(6/7=3) symme
 try=loose\\Methane DF-PBE/def2-SVP\\0,1\C,0.,0.,0.\H,0.63857389,0.6385
 7389,0.63857389\H,0.63857389,-0.638573887,-0.638573893\H,-0.638573893,
 0.63857389,-0.638573887\H,-0.638573887,-0.638573893,0.63857389\\Versio
 n=ES64L-G09RevE.01\State=1-A1\HF=-40.4151778\RMSD=7.408e-09\RMSF=3.160
 e-05\Dipole=0.,0.,0.\Quadrupole=0.,0.,0.,0.,0.,0.\PG=TD [O(C1),4C3(H1)
 ]\\@


 The impersonal hand of government can
 never replace the helping hand of a neighbor.
                        -- Hubert H. Humphrey
 Job cpu time:       0 days  0 hours  0 minutes 21.7 seconds.
 File lengths (MBytes):  RWF=      5 Int=      0 D2E=      0 Chk=      1 Scr=      1
 Normal termination of Gaussian 09 at Mon Jan 22 14:53:58 2018.
