Methane PBE0/C:6-31G*;H:3-21G                                           
FOpt      RPBE1PBE                                                    Gen                 
Number of atoms                            I                5
Info1-9                                    I   N=           9
          27          26           0           0           0         111
           2          18        -302
Full Title                                 C   N=           3
Methane PBE0/C:6-31G*;H:3-21G       
Route                                      C   N=          11
#P PBE1PBE/gen opt(MaxCycle=100) scf(xqc,MaxConventionalCycl
e=500) int(ultrafinegrid) gfinput gfoldprint iop(6/7=3) symm
etry=loose  
Charge                                     I                0
Multiplicity                               I                1
Number of electrons                        I               10
Number of alpha electrons                  I                5
Number of beta electrons                   I                5
Number of basis functions                  I               22
Number of independent functions            I               22
Number of point charges in /Mol/           I                0
Number of translation vectors              I                0
Atomic numbers                             I   N=           5
           6           1           1           1           1
Nuclear charges                            R   N=           5
  6.00000000E+00  1.00000000E+00  1.00000000E+00  1.00000000E+00  1.00000000E+00
Current cartesian coordinates              R   N=          15
  0.00000000E+00  0.00000000E+00  0.00000000E+00  1.19499634E+00  1.19499634E+00
  1.19499634E+00 -1.19499634E+00 -1.19499634E+00  1.19499634E+00  1.19499634E+00
 -1.19499634E+00 -1.19499634E+00 -1.19499634E+00  1.19499634E+00 -1.19499634E+00
Number of symbols in /Mol/                 I                0
Redundant internal dimensions              I   N=           4
          14           4           6           4
Redundant internal coordinate indices      I   N=          56
           1           2           0           0           1           3
           0           0           1           4           0           0
           1           5           0           0           2           1
           3           0           2           1           4           0
           2           1           5           0           3           1
           4           0           3           1           5           0
           4           1           5           0           2           1
           4           3           2           1           5           3
           2           1           5           4           3           1
           5           4
Redundant internal coordinates             R   N=          14
  2.06979437E+00  2.06979437E+00  2.06979437E+00  2.06979437E+00  1.91063324E+00
  1.91063324E+00  1.91063324E+00  1.91063324E+00  1.91063324E+00  1.91063324E+00
  2.09439510E+00 -2.09439510E+00  2.09439510E+00 -2.09439510E+00
ZRed-IntVec                                I   N=          14
           0           0           0           0           0           0
           0           0           0           0           0           0
           0           0
ZRed-FPVec                                 R   N=          14
  0.00000000E+00  0.00000000E+00  0.00000000E+00  0.00000000E+00  0.00000000E+00
  0.00000000E+00  0.00000000E+00  0.00000000E+00  0.00000000E+00  0.00000000E+00
  0.00000000E+00  0.00000000E+00  0.00000000E+00  0.00000000E+00
ZRed-Constraint1                           R   N=          14
  2.06335348E+00  2.06335348E+00  2.06335348E+00  2.06335348E+00  1.91063324E+00
  1.91063324E+00  1.91063324E+00  1.91063324E+00  1.91063324E+00  1.91063324E+00
  2.09439510E+00 -2.09439510E+00  2.09439510E+00 -2.09439510E+00
ZRed-Constraint2                           R   N=          14
  0.00000000E+00  0.00000000E+00  0.00000000E+00  0.00000000E+00  0.00000000E+00
  0.00000000E+00  0.00000000E+00  0.00000000E+00  0.00000000E+00  0.00000000E+00
  0.00000000E+00  0.00000000E+00  0.00000000E+00  0.00000000E+00
Force Field                                I                0
Atom Types                                 C   N=           5
                                                            
Int Atom Types                             I   N=           5
           0           0           0           0           0
MM charges                                 R   N=           5
  0.00000000E+00  0.00000000E+00  0.00000000E+00  0.00000000E+00  0.00000000E+00
Integer atomic weights                     I   N=           5
          12           1           1           1           1
Real atomic weights                        R   N=           5
  1.20000000E+01  1.00782504E+00  1.00782504E+00  1.00782504E+00  1.00782504E+00
Atom fragment info                         I   N=           5
           0           0           0           0           0
Atom residue num                           I   N=           5
           0           0           0           0           0
Nuclear spins                              I   N=           5
           0           1           1           1           1
Nuclear ZEff                               R   N=           5
 -3.60000000E+00 -1.00000000E+00 -1.00000000E+00 -1.00000000E+00 -1.00000000E+00
Nuclear ZNuc                               R   N=           5
  6.00000000E+00  1.00000000E+00  1.00000000E+00  1.00000000E+00  1.00000000E+00
Nuclear QMom                               R   N=           5
  0.00000000E+00  0.00000000E+00  0.00000000E+00  0.00000000E+00  0.00000000E+00
Nuclear GFac                               R   N=           5
  0.00000000E+00  2.79284600E+00  2.79284600E+00  2.79284600E+00  2.79284600E+00
MicOpt                                     I   N=           5
          -1          -1          -1          -1          -1
Number of residues                         I                0
Number of secondary structures             I                0
SymInf integers                            I   N=          26
           4           4           1           1           1           1
          -1          -1          -1           1          -1          -1
          -1           1           0           0           0           0
           0           0           0           0           0           0
           0           0
RotTr to input orientation                 R   N=          12
 -2.37945268E-09  1.00000000E+00  2.37945263E-09  2.37945288E-09 -2.37945263E-09
  1.00000000E+00  1.00000000E+00  2.37945268E-09 -2.37945288E-09  0.00000000E+00
  0.00000000E+00  0.00000000E+00
Number of contracted shells                I               12
Number of primitive shells                 I               23
Pure/Cartesian d shells                    I                0
Pure/Cartesian f shells                    I                0
Highest angular momentum                   I                2
Largest degree of contraction              I                6
Shell types                                I   N=          12
           0          -1          -1          -2           0           0
           0           0           0           0           0           0
Number of primitives per shell             I   N=          12
           6           3           1           1           2           1
           2           1           2           1           2           1
Shell to atom map                          I   N=          12
           1           1           1           1           2           2
           3           3           4           4           5           5
Primitive exponents                        R   N=          23
  3.04752488E+03  4.57369518E+02  1.03948685E+02  2.92101553E+01  9.28666296E+00
  3.16392696E+00  7.86827235E+00  1.88128854E+00  5.44249258E-01  1.68714478E-01
  8.00000000E-01  5.44717800E+00  8.24547240E-01  1.83191580E-01  5.44717800E+00
  8.24547240E-01  1.83191580E-01  5.44717800E+00  8.24547240E-01  1.83191580E-01
  5.44717800E+00  8.24547240E-01  1.83191580E-01
Contraction coefficients                   R   N=          23
  1.83473713E-03  1.40373228E-02  6.88426223E-02  2.32184443E-01  4.67941348E-01
  3.62311985E-01 -1.19332420E-01 -1.60854152E-01  1.14345644E+00  1.00000000E+00
  1.00000000E+00  1.56284979E-01  9.04690877E-01  1.00000000E+00  1.56284979E-01
  9.04690877E-01  1.00000000E+00  1.56284979E-01  9.04690877E-01  1.00000000E+00
  1.56284979E-01  9.04690877E-01  1.00000000E+00
P(S=P) Contraction coefficients            R   N=          23
  0.00000000E+00  0.00000000E+00  0.00000000E+00  0.00000000E+00  0.00000000E+00
  0.00000000E+00  6.89990666E-02  3.16423961E-01  7.44308291E-01  1.00000000E+00
  0.00000000E+00  0.00000000E+00  0.00000000E+00  0.00000000E+00  0.00000000E+00
  0.00000000E+00  0.00000000E+00  0.00000000E+00  0.00000000E+00  0.00000000E+00
  0.00000000E+00  0.00000000E+00  0.00000000E+00
Coordinates of each shell                  R   N=          36
  0.00000000E+00  0.00000000E+00  0.00000000E+00  0.00000000E+00  0.00000000E+00
  0.00000000E+00  0.00000000E+00  0.00000000E+00  0.00000000E+00  0.00000000E+00
  0.00000000E+00  0.00000000E+00  1.19499634E+00  1.19499634E+00  1.19499634E+00
  1.19499634E+00  1.19499634E+00  1.19499634E+00 -1.19499634E+00 -1.19499634E+00
  1.19499634E+00 -1.19499634E+00 -1.19499634E+00  1.19499634E+00  1.19499634E+00
 -1.19499634E+00 -1.19499634E+00  1.19499634E+00 -1.19499634E+00 -1.19499634E+00
 -1.19499634E+00  1.19499634E+00 -1.19499634E+00 -1.19499634E+00  1.19499634E+00
 -1.19499634E+00
Constraint Structure                       R   N=          15
  0.00000000E+00  0.00000000E+00  0.00000000E+00  1.19127768E+00  1.19127768E+00
  1.19127768E+00 -1.19127768E+00 -1.19127768E+00  1.19127768E+00  1.19127768E+00
 -1.19127768E+00 -1.19127768E+00 -1.19127768E+00  1.19127768E+00 -1.19127768E+00
Num ILSW                                   I              100
ILSW                                       I   N=         100
           0           0           0           0           2           0
           0           0           0           0        1009          -1
           5           0           0           0           2           0
           0           0           0           0           1           0
           1           0           0           0           0           0
           0           0      100000           0          -1           0
           0           0           0           0           0           0
           0           0           0           1           0           0
           0           0           1           0           0           0
           0           0           4          41           0           0
           0           0          13           0           0           0
           0           0           0           5           0           0
           0           0           0           0           0           0
           0           0           0           0           0           0
           0           0           0           0           0           0
           0           0           0           0           0           0
           0           0           0           0
Num RLSW                                   I               41
RLSW                                       R   N=          41
  7.50000000E-01  7.50000000E-01  1.00000000E+00  1.00000000E+00  2.50000000E-01
  0.00000000E+00  0.00000000E+00  1.00000000E+00  0.00000000E+00  0.00000000E+00
  0.00000000E+00  0.00000000E+00  1.00000000E+00  0.00000000E+00  0.00000000E+00
  0.00000000E+00  0.00000000E+00  1.00000000E+00  0.00000000E+00  0.00000000E+00
  0.00000000E+00  0.00000000E+00  1.00000000E+00  0.00000000E+00  0.00000000E+00
  0.00000000E+00  0.00000000E+00  1.00000000E+00  0.00000000E+00  0.00000000E+00
  0.00000000E+00  0.00000000E+00  1.00000000E+00  0.00000000E+00  0.00000000E+00
  0.00000000E+00  0.00000000E+00  0.00000000E+00  1.00000000E+00  1.00000000E+00
  0.00000000E+00
MxBond                                     I                4
NBond                                      I   N=           5
           4           1           1           1           1
IBond                                      I   N=          20
           2           3           4           5           1           0
           0           0           1           0           0           0
           1           0           0           0           1           0
           0           0
RBond                                      R   N=          20
  1.00000000E+00  1.00000000E+00  1.00000000E+00  1.00000000E+00  1.00000000E+00
  0.00000000E+00  0.00000000E+00  0.00000000E+00  1.00000000E+00  0.00000000E+00
  0.00000000E+00  0.00000000E+00  1.00000000E+00  0.00000000E+00  0.00000000E+00
  0.00000000E+00  1.00000000E+00  0.00000000E+00  0.00000000E+00  0.00000000E+00
Virial Ratio                               R      2.006705549114624E+00
SCF Energy                                 R     -4.044716537209763E+01
Total Energy                               R     -4.044716537209763E+01
RMS Force                                  R      5.665314067079469E-05
RMS Density                                R      8.146493347557537E-09
Job Status                                 I                1
Nuclear derivative order                   I                1
External E-field                           R   N=          35
  0.00000000E+00  0.00000000E+00  0.00000000E+00  0.00000000E+00  0.00000000E+00
  0.00000000E+00  0.00000000E+00  0.00000000E+00  0.00000000E+00  0.00000000E+00
  0.00000000E+00  0.00000000E+00  0.00000000E+00  0.00000000E+00  0.00000000E+00
  0.00000000E+00  0.00000000E+00  0.00000000E+00  0.00000000E+00  0.00000000E+00
  0.00000000E+00  0.00000000E+00  0.00000000E+00  0.00000000E+00  0.00000000E+00
  0.00000000E+00  0.00000000E+00  0.00000000E+00  0.00000000E+00  0.00000000E+00
  0.00000000E+00  0.00000000E+00  0.00000000E+00  0.00000000E+00  0.00000000E+00
IOpCl                                      I                0
IROHF                                      I                0
Alpha Orbital Energies                     R   N=          22
 -1.02012638E+01 -7.06471357E-01 -3.95840934E-01 -3.95840934E-01 -3.95840934E-01
  1.66939282E-01  2.03135972E-01  2.03135972E-01  2.03135972E-01  5.56515308E-01
  5.56515308E-01  5.56515308E-01  1.02951690E+00  1.02951690E+00  1.02951690E+00
  1.04499933E+00  1.11651086E+00  1.66598351E+00  1.66598351E+00  2.27193054E+00
  2.27193054E+00  2.27193054E+00
Alpha MO coefficients                      R   N=         484
  9.95301599E-01  3.49176292E-02  0.00000000E+00  0.00000000E+00  0.00000000E+00
 -2.85942046E-02  0.00000000E+00  0.00000000E+00  0.00000000E+00  1.71223391E-16
  0.00000000E+00  0.00000000E+00  1.06470050E-16  0.00000000E+00 -8.94266971E-04
  5.85618173E-03 -8.94266971E-04  5.85618173E-03 -8.94266971E-04  5.85618173E-03
 -8.94266971E-04  5.85618173E-03 -1.98899922E-01  3.75587119E-01  0.00000000E+00
  0.00000000E+00  0.00000000E+00  3.97899238E-01  0.00000000E+00  0.00000000E+00
  0.00000000E+00 -5.38579834E-16  0.00000000E+00  0.00000000E+00  4.60403310E-17
  0.00000000E+00  1.20135811E-01  4.37725110E-02  1.20135811E-01  4.37725110E-02
  1.20135811E-01  4.37725110E-02  1.20135811E-01  4.37725110E-02  0.00000000E+00
  0.00000000E+00  4.43961251E-01  0.00000000E+00  0.00000000E+00  0.00000000E+00
  2.32588995E-01  0.00000000E+00  0.00000000E+00  0.00000000E+00  0.00000000E+00
  2.35905169E-02  0.00000000E+00  0.00000000E+00  1.50438458E-01  1.52035476E-01
 -1.50438458E-01 -1.52035476E-01  1.50438458E-01  1.52035476E-01 -1.50438458E-01
 -1.52035476E-01  0.00000000E+00  0.00000000E+00  0.00000000E+00  4.43961251E-01
  0.00000000E+00  0.00000000E+00  0.00000000E+00  2.32588995E-01  0.00000000E+00
  0.00000000E+00  2.35905169E-02  0.00000000E+00  0.00000000E+00  0.00000000E+00
  1.50438458E-01  1.52035476E-01 -1.50438458E-01 -1.52035476E-01 -1.50438458E-01
 -1.52035476E-01  1.50438458E-01  1.52035476E-01  0.00000000E+00  0.00000000E+00
  0.00000000E+00  0.00000000E+00  4.43961251E-01  0.00000000E+00  0.00000000E+00
  0.00000000E+00  2.32588995E-01  0.00000000E+00  0.00000000E+00  0.00000000E+00
  0.00000000E+00  2.35905169E-02  1.50438458E-01  1.52035476E-01  1.50438458E-01
  1.52035476E-01 -1.50438458E-01 -1.52035476E-01 -1.50438458E-01 -1.52035476E-01
 -1.66174179E-01  2.38148228E-01  0.00000000E+00  0.00000000E+00  0.00000000E+00
  2.73115243E+00  0.00000000E+00  0.00000000E+00  0.00000000E+00  2.13486235E-16
  0.00000000E+00  0.00000000E+00  3.93657950E-16  0.00000000E+00 -1.51555612E-02
 -1.08304280E+00 -1.51555612E-02 -1.08304280E+00 -1.51555612E-02 -1.08304280E+00
 -1.51555612E-02 -1.08304280E+00  0.00000000E+00  0.00000000E+00  0.00000000E+00
  0.00000000E+00  3.64707617E-01  0.00000000E+00  0.00000000E+00  0.00000000E+00
  1.43467155E+00  0.00000000E+00  0.00000000E+00  0.00000000E+00  0.00000000E+00
 -2.60731418E-02 -7.51939546E-02 -1.05022916E+00 -7.51939546E-02 -1.05022916E+00
  7.51939546E-02  1.05022916E+00  7.51939546E-02  1.05022916E+00  0.00000000E+00
  0.00000000E+00  3.64707617E-01  0.00000000E+00  0.00000000E+00  0.00000000E+00
  1.43467155E+00  0.00000000E+00  0.00000000E+00  0.00000000E+00  0.00000000E+00
 -2.60731418E-02  0.00000000E+00  0.00000000E+00 -7.51939546E-02 -1.05022916E+00
  7.51939546E-02  1.05022916E+00 -7.51939546E-02 -1.05022916E+00  7.51939546E-02
  1.05022916E+00  0.00000000E+00  0.00000000E+00  0.00000000E+00  3.64707617E-01
  0.00000000E+00  0.00000000E+00  0.00000000E+00  1.43467155E+00  0.00000000E+00
  0.00000000E+00 -2.60731418E-02  0.00000000E+00  0.00000000E+00  0.00000000E+00
 -7.51939546E-02 -1.05022916E+00  7.51939546E-02  1.05022916E+00  7.51939546E-02
  1.05022916E+00 -7.51939546E-02 -1.05022916E+00  0.00000000E+00  0.00000000E+00
 -8.95290115E-01  0.00000000E+00  0.00000000E+00  0.00000000E+00  1.41798279E+00
  0.00000000E+00  0.00000000E+00  0.00000000E+00  0.00000000E+00 -8.08503773E-02
  0.00000000E+00  0.00000000E+00 -1.96408346E-01 -1.41554169E-01  1.96408346E-01
  1.41554169E-01 -1.96408346E-01 -1.41554169E-01  1.96408346E-01  1.41554169E-01
  0.00000000E+00  0.00000000E+00  0.00000000E+00 -8.95290115E-01  0.00000000E+00
  0.00000000E+00  0.00000000E+00  1.41798279E+00  0.00000000E+00  0.00000000E+00
 -8.08503773E-02  0.00000000E+00  0.00000000E+00  0.00000000E+00 -1.96408346E-01
 -1.41554169E-01  1.96408346E-01  1.41554169E-01  1.96408346E-01  1.41554169E-01
 -1.96408346E-01 -1.41554169E-01  0.00000000E+00  0.00000000E+00  0.00000000E+00
  0.00000000E+00 -8.95290115E-01  0.00000000E+00  0.00000000E+00  0.00000000E+00
  1.41798279E+00  0.00000000E+00  0.00000000E+00  0.00000000E+00  0.00000000E+00
 -8.08503773E-02 -1.96408346E-01 -1.41554169E-01 -1.96408346E-01 -1.41554169E-01
  1.96408346E-01  1.41554169E-01  1.96408346E-01  1.41554169E-01  0.00000000E+00
  0.00000000E+00  0.00000000E+00  0.00000000E+00 -6.89061439E-01  0.00000000E+00
  0.00000000E+00  0.00000000E+00  1.14578899E+00  0.00000000E+00  0.00000000E+00
  0.00000000E+00  0.00000000E+00  2.62077679E-01  5.35635326E-01 -9.82654093E-01
  5.35635326E-01 -9.82654093E-01 -5.35635326E-01  9.82654093E-01 -5.35635326E-01
  9.82654093E-01  0.00000000E+00  0.00000000E+00  0.00000000E+00 -6.89061439E-01
  0.00000000E+00  0.00000000E+00  0.00000000E+00  1.14578899E+00  0.00000000E+00
  0.00000000E+00  2.62077679E-01  0.00000000E+00  0.00000000E+00  0.00000000E+00
  5.35635326E-01 -9.82654093E-01 -5.35635326E-01  9.82654093E-01 -5.35635326E-01
  9.82654093E-01  5.35635326E-01 -9.82654093E-01  0.00000000E+00  0.00000000E+00
 -6.89061439E-01  0.00000000E+00  0.00000000E+00  0.00000000E+00  1.14578899E+00
  0.00000000E+00  0.00000000E+00  0.00000000E+00  0.00000000E+00  2.62077679E-01
  0.00000000E+00  0.00000000E+00  5.35635326E-01 -9.82654093E-01 -5.35635326E-01
  9.82654093E-01  5.35635326E-01 -9.82654093E-01 -5.35635326E-01  9.82654093E-01
 -1.18587712E-01 -6.60388518E-01  0.00000000E+00  0.00000000E+00  0.00000000E+00
  2.02038301E+00  0.00000000E+00  0.00000000E+00  0.00000000E+00  3.03953887E-15
  0.00000000E+00  0.00000000E+00  1.02089984E-15  0.00000000E+00 -6.42106362E-01
 -1.40678599E-01 -6.42106362E-01 -1.40678599E-01 -6.42106362E-01 -1.40678599E-01
 -6.42106362E-01 -1.40678599E-01  1.82191851E-03 -2.27643412E+00  0.00000000E+00
  0.00000000E+00  0.00000000E+00  5.29165116E+00  0.00000000E+00  0.00000000E+00
  0.00000000E+00 -1.36241743E-15  0.00000000E+00  0.00000000E+00 -2.70421126E-15
  0.00000000E+00  1.94139847E-01 -1.31873997E+00  1.94139847E-01 -1.31873997E+00
  1.94139847E-01 -1.31873997E+00  1.94139847E-01 -1.31873997E+00  9.93798140E-16
 -2.57231754E-15  0.00000000E+00  0.00000000E+00  0.00000000E+00 -6.11651486E-16
  0.00000000E+00  0.00000000E+00  0.00000000E+00  9.99777397E-01  0.00000000E+00
  0.00000000E+00  2.10987312E-02  0.00000000E+00  2.49735464E-15 -9.15032752E-16
  2.49735464E-15 -9.15032752E-16  2.49735464E-15 -9.15032752E-16  2.49735464E-15
 -9.15032752E-16  3.47663937E-16 -3.99078107E-15  0.00000000E+00  0.00000000E+00
  0.00000000E+00  5.88221389E-15  0.00000000E+00  0.00000000E+00  0.00000000E+00
 -2.10987312E-02  0.00000000E+00  0.00000000E+00  9.99777397E-01  0.00000000E+00
  1.57344458E-15 -1.91453923E-15  1.57344458E-15 -1.91453923E-15  1.57344458E-15
 -1.91453923E-15  1.57344458E-15 -1.91453923E-15  0.00000000E+00  0.00000000E+00
  0.00000000E+00  0.00000000E+00  1.58280539E-01  0.00000000E+00  0.00000000E+00
  0.00000000E+00  3.70392609E-01  0.00000000E+00  0.00000000E+00  0.00000000E+00
  0.00000000E+00  1.11966424E+00 -4.73385475E-01  6.54913916E-02 -4.73385475E-01
  6.54913916E-02  4.73385475E-01 -6.54913916E-02  4.73385475E-01 -6.54913916E-02
  0.00000000E+00  0.00000000E+00  0.00000000E+00  1.58280539E-01  0.00000000E+00
  0.00000000E+00  0.00000000E+00  3.70392609E-01  0.00000000E+00  0.00000000E+00
  1.11966424E+00  0.00000000E+00  0.00000000E+00  0.00000000E+00 -4.73385475E-01
  6.54913916E-02  4.73385475E-01 -6.54913916E-02  4.73385475E-01 -6.54913916E-02
 -4.73385475E-01  6.54913916E-02  0.00000000E+00  0.00000000E+00  1.58280539E-01
  0.00000000E+00  0.00000000E+00  0.00000000E+00  3.70392609E-01  0.00000000E+00
  0.00000000E+00  0.00000000E+00  0.00000000E+00  1.11966424E+00  0.00000000E+00
  0.00000000E+00 -4.73385475E-01  6.54913916E-02  4.73385475E-01 -6.54913916E-02
 -4.73385475E-01  6.54913916E-02  4.73385475E-01 -6.54913916E-02
Total SCF Density                          R   N=         253
  2.06037291E+00 -7.99013533E-02  2.84569850E-01  0.00000000E+00  0.00000000E+00
  3.94203185E-01  0.00000000E+00  0.00000000E+00 -4.46379583E-18  3.94203185E-01
  0.00000000E+00  0.00000000E+00  4.30317702E-25 -3.05697420E-25  3.94203185E-01
 -2.15203970E-01  2.96894774E-01  0.00000000E+00  0.00000000E+00  0.00000000E+00
  3.18282865E-01  0.00000000E+00  0.00000000E+00  2.06521002E-01 -2.33855946E-18
  2.25441175E-25  0.00000000E+00  1.08195281E-01  0.00000000E+00  0.00000000E+00
 -2.33855946E-18  2.06521002E-01 -1.60153250E-25  0.00000000E+00 -1.22515916E-18
  1.08195281E-01  0.00000000E+00  0.00000000E+00  2.25441175E-25 -1.60153249E-25
  2.06521002E-01  0.00000000E+00  1.18107441E-25 -8.39034343E-26  1.08195281E-01
 -3.90321802E-32  3.28692044E-32 -1.15939102E-19  1.15939103E-19  1.36941817E-19
  3.01301040E-32 -6.07398937E-20  6.07398940E-20  7.17431070E-20  3.32999808E-31
  1.02894427E-32 -9.67607275E-33 -3.01023312E-18  2.09465508E-02 -1.33874955E-19
 -1.05850509E-32 -1.57704550E-18  1.09737892E-02 -7.01363937E-20  6.16059027E-21
  1.11302498E-03 -1.54789828E-32  8.54985961E-33  2.09465508E-02  2.53585275E-18
  1.33874959E-19  9.76624924E-33  1.09737892E-02  1.32852009E-18  7.01363963E-20
 -6.16059025E-21 -1.26034402E-20  1.11302498E-03  8.30245675E-33  0.00000000E+00
 -6.69374610E-20 -6.69374569E-20 -2.77304294E-18  0.00000000E+00 -3.50681883E-20
 -3.50681861E-20 -1.45278280E-18 -1.48521028E-37 -3.55681764E-21 -3.55681786E-21
  3.32994806E-31 -9.14157303E-33 -1.98386745E-33 -1.33874914E-19  1.33874922E-19
  2.09465508E-02 -1.44235044E-33 -7.01363723E-20  7.01363766E-20  1.09737892E-02
  7.27659958E-21 -8.63130580E-28  1.21499363E-27 -1.47349608E-19  1.11302498E-03
 -4.95701376E-02  9.01804749E-02  1.33577692E-01  1.33577692E-01  1.33577692E-01
  9.56550369E-02  6.99806596E-02  6.99806596E-02  6.99806596E-02  4.64034099E-20
  7.09784200E-03  7.09784200E-03 -9.85023444E-19  7.09784200E-03  1.64657204E-01
 -5.75536400E-03  3.32897506E-02  1.34995721E-01  1.34995721E-01  1.34995721E-01
  3.44991919E-02  7.07235572E-02  7.07235572E-02  7.07235572E-02  4.68960172E-20
  7.17319097E-03  7.17319097E-03 -9.95480214E-19  7.17319097E-03  1.47738714E-01
  1.42589372E-01 -4.95701376E-02  9.01804749E-02 -1.33577692E-01 -1.33577692E-01
  1.33577692E-01  9.56550369E-02 -6.99806596E-02 -6.99806596E-02  6.99806596E-02
  4.64034096E-20 -7.09784200E-03 -7.09784200E-03 -8.94295092E-19  7.09784200E-03
 -1.63966340E-02 -3.52371472E-02  1.64657204E-01 -5.75536400E-03  3.32897506E-02
 -1.34995721E-01 -1.34995721E-01  1.34995721E-01  3.44991919E-02 -7.07235572E-02
 -7.07235572E-02  7.07235572E-02  4.68960169E-20 -7.17319097E-03 -7.17319097E-03
 -9.03788712E-19  7.17319097E-03 -3.52371472E-02 -4.23289171E-02  1.47738714E-01
  1.42589372E-01 -4.95701376E-02  9.01804749E-02  1.33577692E-01 -1.33577692E-01
 -1.33577692E-01  9.56550369E-02  6.99806596E-02 -6.99806596E-02 -6.99806596E-02
 -1.24976482E-19 -7.09784200E-03  7.09784200E-03  9.39659267E-19 -7.09784200E-03
 -1.63966340E-02 -3.52371472E-02 -1.63966340E-02 -3.52371472E-02  1.64657204E-01
 -5.75536400E-03  3.32897506E-02  1.34995721E-01 -1.34995721E-01 -1.34995721E-01
  3.44991919E-02  7.07235572E-02 -7.07235572E-02 -7.07235572E-02 -1.26303202E-19
 -7.17319097E-03  7.17319097E-03  9.49634461E-19 -7.17319097E-03 -3.52371472E-02
 -4.23289171E-02 -3.52371472E-02 -4.23289171E-02  1.47738714E-01  1.42589372E-01
 -4.95701376E-02  9.01804749E-02 -1.33577692E-01  1.33577692E-01 -1.33577692E-01
  9.56550369E-02 -6.99806596E-02  6.99806596E-02 -6.99806596E-02  3.21696630E-20
  7.09784200E-03 -7.09784200E-03  9.39659270E-19 -7.09784200E-03 -1.63966340E-02
 -3.52371472E-02 -1.63966340E-02 -3.52371472E-02 -1.63966340E-02 -3.52371472E-02
  1.64657204E-01 -5.75536400E-03  3.32897506E-02 -1.34995721E-01  1.34995721E-01
 -1.34995721E-01  3.44991919E-02 -7.07235572E-02  7.07235572E-02 -7.07235572E-02
  3.25111683E-20  7.17319097E-03 -7.17319097E-03  9.49634464E-19 -7.17319097E-03
 -3.52371472E-02 -4.23289171E-02 -3.52371472E-02 -4.23289171E-02 -3.52371472E-02
 -4.23289171E-02  1.47738714E-01  1.42589372E-01
Grdnt Energy                               R     -4.044716537209763E+01
Grdnt NVar                                 I               14
Grdnt IGetFC                               I                0
Internal Forces                            R   N=          14
 -1.09708335E-04 -1.09708335E-04 -1.09708335E-04 -1.09708335E-04 -2.18472397E-16
 -4.44786440E-18  3.11051291E-16 -3.66705609E-16  4.97685682E-16 -2.19063668E-16
 -4.94870458E-16 -2.27616464E-16  5.08935230E-17  2.78524387E-16
Internal Force Constants                   R   N=         105
  3.50235849E-01  4.27263029E-03  3.50235849E-01  4.27263029E-03  4.27263029E-03
  3.50235849E-01  4.27263029E-03  4.27263029E-03  4.27263029E-03  3.50235849E-01
 -6.19176460E-15 -6.19176460E-15 -6.19176460E-15 -6.19176460E-15  1.60000000E-01
  2.82666314E-14  2.82666314E-14  2.82666314E-14  2.82666314E-14 -2.45080420E-27
  1.60000000E-01 -2.67047266E-14 -2.67047266E-14 -2.67047266E-14 -2.67047266E-14
  2.04141374E-27 -7.86558981E-27  1.60000000E-01  1.10284204E-14  1.10284204E-14
  1.10284204E-14  1.10284204E-14 -1.01293573E-27  4.03057649E-27 -3.31750456E-27
  1.60000000E-01 -2.61743142E-15 -2.61743142E-15 -2.61743142E-15 -2.61743142E-15
  2.18324402E-28 -8.54918313E-28  6.90576371E-28 -3.57803641E-28  1.60000000E-01
 -6.50829163E-15 -6.50829163E-15 -6.50829163E-15 -6.50829163E-15  6.35904108E-28
 -2.55418981E-27  2.12492541E-27 -1.05620507E-27  2.27452393E-28  1.60000000E-01
  1.64832476E-14  1.64832476E-14  1.64832476E-14  1.64832476E-14 -1.37222090E-27
  5.37152228E-27 -4.33717356E-27  2.24847734E-27 -4.74199785E-28 -1.42956607E-27
  2.30000000E-03  2.54926445E-14  2.54926445E-14  2.54926445E-14  2.54926445E-14
 -2.12905960E-27  8.33884990E-27 -6.73763784E-27  3.48963941E-27 -7.36298904E-28
 -2.21810052E-27  4.62570054E-27  2.30000000E-03  1.67905566E-14  1.67905566E-14
  1.67905566E-14  1.67905566E-14 -1.40320366E-27  5.49653118E-27 -4.44170136E-27
  2.30006145E-27 -4.85348526E-28 -1.46189705E-27  3.04914416E-27  4.73441696E-27
  2.30000000E-03 -8.75340914E-15 -8.75340914E-15 -8.75340914E-15 -8.75340914E-15
  7.30136730E-28 -2.85908151E-27  2.30947695E-27 -1.19659359E-27  2.52430377E-28
  7.60663237E-28 -1.58585425E-27 -2.46238565E-27 -1.62313870E-27  2.30000000E-03
Mulliken Charges                           R   N=           5
 -7.66220921E-01  1.91555230E-01  1.91555230E-01  1.91555230E-01  1.91555230E-01
Optimization MaxStp                        I              100
Optimization Job offset                    I                0
Optimization Num results per geometry      I                2
Optimization Num geometry variables        I               15
Opt point       1 Results for each geome   R   N=           4
 -4.04471382E+01  0.00000000E+00 -4.04471654E+01  0.00000000E+00
Opt point       1 Geometries               R   N=          30
  0.00000000E+00  0.00000000E+00  0.00000000E+00  1.19127768E+00  1.19127768E+00
  1.19127768E+00 -1.19127768E+00 -1.19127768E+00  1.19127768E+00  1.19127768E+00
 -1.19127768E+00 -1.19127768E+00 -1.19127768E+00  1.19127768E+00 -1.19127768E+00
  0.00000000E+00  0.00000000E+00  0.00000000E+00  1.19499634E+00  1.19499634E+00
  1.19499634E+00 -1.19499634E+00 -1.19499634E+00  1.19499634E+00  1.19499634E+00
 -1.19499634E+00 -1.19499634E+00 -1.19499634E+00  1.19499634E+00 -1.19499634E+00