Methane PBE0/C:6-31G*;H:3-21G                                           
Freq      RPBE1PBE                                                    Gen                 
Number of atoms                            I                5
Info1-9                                    I   N=           9
          12          11           0           0           0         101
           6          18        -302
Full Title                                 C   N=           3
Methane PBE0/C:6-31G*;H:3-21G       
Route                                      C   N=          13
#P PBE1PBE/ChkBasis scf(xqc,MaxConventionalCycle=500) int(ul
trafinegrid) gfinput gfoldprint iop(6/7=3) symmetry(loose) g
eom(check) guess(read) freq         
Charge                                     I                0
Multiplicity                               I                1
Number of electrons                        I               10
Number of alpha electrons                  I                5
Number of beta electrons                   I                5
Number of basis functions                  I               22
Number of independent functions            I               22
Number of point charges in /Mol/           I                0
Number of translation vectors              I                0
Atomic numbers                             I   N=           5
           6           1           1           1           1
Nuclear charges                            R   N=           5
  6.00000000E+00  1.00000000E+00  1.00000000E+00  1.00000000E+00  1.00000000E+00
Current cartesian coordinates              R   N=          15
  0.00000000E+00  0.00000000E+00  0.00000000E+00  1.19499634E+00  1.19499634E+00
  1.19499634E+00 -1.19499634E+00 -1.19499634E+00  1.19499634E+00  1.19499634E+00
 -1.19499634E+00 -1.19499634E+00 -1.19499634E+00  1.19499634E+00 -1.19499634E+00
Number of symbols in /Mol/                 I                0
Redundant internal dimensions              I   N=           4
          14           4           6           4
Redundant internal coordinate indices      I   N=          56
           1           2           0           0           1           3
           0           0           1           4           0           0
           1           5           0           0           2           1
           3           0           2           1           4           0
           2           1           5           0           3           1
           4           0           3           1           5           0
           4           1           5           0           2           1
           4           3           2           1           5           3
           2           1           5           4           3           1
           5           4
Redundant internal coordinates             R   N=          14
  2.06979437E+00  2.06979437E+00  2.06979437E+00  2.06979437E+00  1.91063324E+00
  1.91063324E+00  1.91063324E+00  1.91063324E+00  1.91063324E+00  1.91063324E+00
  2.09439510E+00 -2.09439510E+00  2.09439510E+00 -2.09439510E+00
ZRed-IntVec                                I   N=          14
           0           0           0           0           0           0
           0           0           0           0           0           0
           0           0
ZRed-FPVec                                 R   N=          14
  0.00000000E+00  0.00000000E+00  0.00000000E+00  0.00000000E+00  0.00000000E+00
  0.00000000E+00  0.00000000E+00  0.00000000E+00  0.00000000E+00  0.00000000E+00
  0.00000000E+00  0.00000000E+00  0.00000000E+00  0.00000000E+00
ZRed-Constraint1                           R   N=          14
  2.06979437E+00  2.06979437E+00  2.06979437E+00  2.06979437E+00  1.91063324E+00
  1.91063324E+00  1.91063324E+00  1.91063324E+00  1.91063324E+00  1.91063324E+00
  2.09439510E+00 -2.09439510E+00  2.09439510E+00 -2.09439510E+00
ZRed-Constraint2                           R   N=          14
  2.06335348E+00  2.06335348E+00  2.06335348E+00  2.06335348E+00  1.91063324E+00
  1.91063324E+00  1.91063324E+00  1.91063324E+00  1.91063324E+00  1.91063324E+00
  2.09439510E+00 -2.09439510E+00  2.09439510E+00 -2.09439510E+00
Force Field                                I                0
Atom Types                                 C   N=           5
                                                            
Int Atom Types                             I   N=           5
           0           0           0           0           0
MM charges                                 R   N=           5
  0.00000000E+00  0.00000000E+00  0.00000000E+00  0.00000000E+00  0.00000000E+00
Integer atomic weights                     I   N=           5
          12           1           1           1           1
Real atomic weights                        R   N=           5
  1.20000000E+01  1.00782504E+00  1.00782504E+00  1.00782504E+00  1.00782504E+00
Atom fragment info                         I   N=           5
           0           0           0           0           0
Atom residue num                           I   N=           5
           0           0           0           0           0
Nuclear spins                              I   N=           5
           0           1           1           1           1
Nuclear ZEff                               R   N=           5
 -3.60000000E+00 -1.00000000E+00 -1.00000000E+00 -1.00000000E+00 -1.00000000E+00
Nuclear ZNuc                               R   N=           5
  6.00000000E+00  1.00000000E+00  1.00000000E+00  1.00000000E+00  1.00000000E+00
Nuclear QMom                               R   N=           5
  0.00000000E+00  0.00000000E+00  0.00000000E+00  0.00000000E+00  0.00000000E+00
Nuclear GFac                               R   N=           5
  0.00000000E+00  2.79284600E+00  2.79284600E+00  2.79284600E+00  2.79284600E+00
MicOpt                                     I   N=           5
          -1          -1          -1          -1          -1
Number of residues                         I                0
Number of secondary structures             I                0
SymInf integers                            I   N=          26
           4           4           1           1           1           1
          -1          -1          -1           1          -1          -1
          -1           1           0           0           0           0
           0           0           0           0           0           0
           0           0
RotTr to input orientation                 R   N=          12
 -2.37945210E-09  1.00000000E+00  2.37945263E-09  2.37945317E-09 -2.37945263E-09
  1.00000000E+00  1.00000000E+00  2.37945211E-09 -2.37945316E-09  0.00000000E+00
  0.00000000E+00  0.00000000E+00
Number of contracted shells                I               12
Number of primitive shells                 I               23
Pure/Cartesian d shells                    I                0
Pure/Cartesian f shells                    I                0
Highest angular momentum                   I                2
Largest degree of contraction              I                6
Shell types                                I   N=          12
           0          -1          -1          -2           0           0
           0           0           0           0           0           0
Number of primitives per shell             I   N=          12
           6           3           1           1           2           1
           2           1           2           1           2           1
Shell to atom map                          I   N=          12
           1           1           1           1           2           2
           3           3           4           4           5           5
Primitive exponents                        R   N=          23
  3.04752488E+03  4.57369518E+02  1.03948685E+02  2.92101553E+01  9.28666296E+00
  3.16392696E+00  7.86827235E+00  1.88128854E+00  5.44249258E-01  1.68714478E-01
  8.00000000E-01  5.44717800E+00  8.24547240E-01  1.83191580E-01  5.44717800E+00
  8.24547240E-01  1.83191580E-01  5.44717800E+00  8.24547240E-01  1.83191580E-01
  5.44717800E+00  8.24547240E-01  1.83191580E-01
Contraction coefficients                   R   N=          23
  1.83473713E-03  1.40373228E-02  6.88426223E-02  2.32184443E-01  4.67941348E-01
  3.62311985E-01 -1.19332420E-01 -1.60854152E-01  1.14345644E+00  1.00000000E+00
  1.00000000E+00  1.56284979E-01  9.04690877E-01  1.00000000E+00  1.56284979E-01
  9.04690877E-01  1.00000000E+00  1.56284979E-01  9.04690877E-01  1.00000000E+00
  1.56284979E-01  9.04690877E-01  1.00000000E+00
P(S=P) Contraction coefficients            R   N=          23
  0.00000000E+00  0.00000000E+00  0.00000000E+00  0.00000000E+00  0.00000000E+00
  0.00000000E+00  6.89990666E-02  3.16423961E-01  7.44308291E-01  1.00000000E+00
  0.00000000E+00  0.00000000E+00  0.00000000E+00  0.00000000E+00  0.00000000E+00
  0.00000000E+00  0.00000000E+00  0.00000000E+00  0.00000000E+00  0.00000000E+00
  0.00000000E+00  0.00000000E+00  0.00000000E+00
Coordinates of each shell                  R   N=          36
  0.00000000E+00  0.00000000E+00  0.00000000E+00  0.00000000E+00  0.00000000E+00
  0.00000000E+00  0.00000000E+00  0.00000000E+00  0.00000000E+00  0.00000000E+00
  0.00000000E+00  0.00000000E+00  1.19499634E+00  1.19499634E+00  1.19499634E+00
  1.19499634E+00  1.19499634E+00  1.19499634E+00 -1.19499634E+00 -1.19499634E+00
  1.19499634E+00 -1.19499634E+00 -1.19499634E+00  1.19499634E+00  1.19499634E+00
 -1.19499634E+00 -1.19499634E+00  1.19499634E+00 -1.19499634E+00 -1.19499634E+00
 -1.19499634E+00  1.19499634E+00 -1.19499634E+00 -1.19499634E+00  1.19499634E+00
 -1.19499634E+00
Constraint Structure                       R   N=          15
  0.00000000E+00  0.00000000E+00  0.00000000E+00  1.19499634E+00  1.19499634E+00
  1.19499634E+00 -1.19499634E+00 -1.19499634E+00  1.19499634E+00  1.19499634E+00
 -1.19499634E+00 -1.19499634E+00 -1.19499634E+00  1.19499634E+00 -1.19499634E+00
Num ILSW                                   I              100
ILSW                                       I   N=         100
           0           0           0           0           2           0
           0           0           0           0        1009          -1
           5           0           0           0           2           0
           0           0           0           0           1           0
           1           0           0           0           0           0
           0           0      100000           0          -1           0
           0           0           0           0           0           0
           0           0           0           1           0           0
           0           0           1           0           0           0
           0           0           4          41           0           0
           0           0          13           0           0           0
           0           0           0           5           0           0
           0           0           0           0           0           0
           0           0           0           0           0           0
           0           0           0           0           0           0
           0           0           0           0           0           0
           0           0           0           0
Num RLSW                                   I               41
RLSW                                       R   N=          41
  7.50000000E-01  7.50000000E-01  1.00000000E+00  1.00000000E+00  2.50000000E-01
  0.00000000E+00  0.00000000E+00  1.00000000E+00  0.00000000E+00  0.00000000E+00
  0.00000000E+00  0.00000000E+00  1.00000000E+00  0.00000000E+00  0.00000000E+00
  0.00000000E+00  0.00000000E+00  1.00000000E+00  0.00000000E+00  0.00000000E+00
  0.00000000E+00  0.00000000E+00  1.00000000E+00  0.00000000E+00  0.00000000E+00
  0.00000000E+00  0.00000000E+00  1.00000000E+00  0.00000000E+00  0.00000000E+00
  0.00000000E+00  0.00000000E+00  1.00000000E+00  0.00000000E+00  0.00000000E+00
  0.00000000E+00  0.00000000E+00  0.00000000E+00  1.00000000E+00  1.00000000E+00
  0.00000000E+00
MxBond                                     I                4
NBond                                      I   N=           5
           4           1           1           1           1
IBond                                      I   N=          20
           2           3           4           5           1           0
           0           0           1           0           0           0
           1           0           0           0           1           0
           0           0
RBond                                      R   N=          20
  1.00000000E+00  1.00000000E+00  1.00000000E+00  1.00000000E+00  1.00000000E+00
  0.00000000E+00  0.00000000E+00  0.00000000E+00  1.00000000E+00  0.00000000E+00
  0.00000000E+00  0.00000000E+00  1.00000000E+00  0.00000000E+00  0.00000000E+00
  0.00000000E+00  1.00000000E+00  0.00000000E+00  0.00000000E+00  0.00000000E+00
Virial Ratio                               R      2.006705548103145E+00
SCF Energy                                 R     -4.044716537209766E+01
Total Energy                               R     -4.044716537209766E+01
RMS Force                                  R      5.665298847104467E-05
RMS Density                                R      3.889529685420595E-10
Job Status                                 I                1
Nuclear derivative order                   I                2
External E-field                           R   N=          35
  0.00000000E+00  0.00000000E+00  0.00000000E+00  0.00000000E+00  0.00000000E+00
  0.00000000E+00  0.00000000E+00  0.00000000E+00  0.00000000E+00  0.00000000E+00
  0.00000000E+00  0.00000000E+00  0.00000000E+00  0.00000000E+00  0.00000000E+00
  0.00000000E+00  0.00000000E+00  0.00000000E+00  0.00000000E+00  0.00000000E+00
  0.00000000E+00  0.00000000E+00  0.00000000E+00  0.00000000E+00  0.00000000E+00
  0.00000000E+00  0.00000000E+00  0.00000000E+00  0.00000000E+00  0.00000000E+00
  0.00000000E+00  0.00000000E+00  0.00000000E+00  0.00000000E+00  0.00000000E+00
IOpCl                                      I                0
IROHF                                      I                0
Alpha Orbital Energies                     R   N=          22
 -1.02012638E+01 -7.06471362E-01 -3.95840938E-01 -3.95840938E-01 -3.95840938E-01
  1.66939280E-01  2.03135970E-01  2.03135970E-01  2.03135970E-01  5.56515304E-01
  5.56515304E-01  5.56515304E-01  1.02951689E+00  1.02951689E+00  1.02951689E+00
  1.04499933E+00  1.11651086E+00  1.66598350E+00  1.66598350E+00  2.27193054E+00
  2.27193054E+00  2.27193054E+00
Alpha MO coefficients                      R   N=         484
  9.95301599E-01  3.49176292E-02  0.00000000E+00  0.00000000E+00  0.00000000E+00
 -2.85942046E-02  0.00000000E+00  0.00000000E+00  0.00000000E+00 -4.62255580E-17
  0.00000000E+00  0.00000000E+00  7.13666749E-18  0.00000000E+00 -8.94266969E-04
  5.85618170E-03 -8.94266969E-04  5.85618170E-03 -8.94266969E-04  5.85618170E-03
 -8.94266969E-04  5.85618170E-03 -1.98899923E-01  3.75587124E-01  0.00000000E+00
  0.00000000E+00  0.00000000E+00  3.97899238E-01  0.00000000E+00  0.00000000E+00
  0.00000000E+00  1.44894621E-16  0.00000000E+00  0.00000000E+00 -2.04586736E-17
  0.00000000E+00  1.20135810E-01  4.37725100E-02  1.20135810E-01  4.37725100E-02
  1.20135810E-01  4.37725100E-02  1.20135810E-01  4.37725100E-02  0.00000000E+00
  0.00000000E+00  0.00000000E+00  4.43961254E-01  0.00000000E+00  0.00000000E+00
  0.00000000E+00  2.32588992E-01  0.00000000E+00  0.00000000E+00  2.35905170E-02
  0.00000000E+00  0.00000000E+00  0.00000000E+00  1.50438458E-01  1.52035477E-01
 -1.50438458E-01 -1.52035477E-01 -1.50438458E-01 -1.52035477E-01  1.50438458E-01
  1.52035477E-01  0.00000000E+00  0.00000000E+00  4.43961254E-01  0.00000000E+00
  0.00000000E+00  0.00000000E+00  2.32588992E-01  0.00000000E+00  0.00000000E+00
  0.00000000E+00  0.00000000E+00  2.35905170E-02  0.00000000E+00  0.00000000E+00
  1.50438458E-01  1.52035477E-01 -1.50438458E-01 -1.52035477E-01  1.50438458E-01
  1.52035477E-01 -1.50438458E-01 -1.52035477E-01  0.00000000E+00  0.00000000E+00
  0.00000000E+00  0.00000000E+00  4.43961254E-01  0.00000000E+00  0.00000000E+00
  0.00000000E+00  2.32588992E-01  0.00000000E+00  0.00000000E+00  0.00000000E+00
  0.00000000E+00  2.35905170E-02  1.50438458E-01  1.52035477E-01  1.50438458E-01
  1.52035477E-01 -1.50438458E-01 -1.52035477E-01 -1.50438458E-01 -1.52035477E-01
 -1.66174179E-01  2.38148232E-01  0.00000000E+00  0.00000000E+00  0.00000000E+00
  2.73115241E+00  0.00000000E+00  0.00000000E+00  0.00000000E+00  1.17642807E-15
  0.00000000E+00  0.00000000E+00 -3.28207158E-16  0.00000000E+00 -1.51555622E-02
 -1.08304280E+00 -1.51555622E-02 -1.08304280E+00 -1.51555622E-02 -1.08304280E+00
 -1.51555622E-02 -1.08304280E+00  0.00000000E+00  0.00000000E+00  0.00000000E+00
  0.00000000E+00  3.64707621E-01  0.00000000E+00  0.00000000E+00  0.00000000E+00
  1.43467154E+00  0.00000000E+00  0.00000000E+00  0.00000000E+00  0.00000000E+00
 -2.60731425E-02 -7.51939549E-02 -1.05022916E+00 -7.51939549E-02 -1.05022916E+00
  7.51939549E-02  1.05022916E+00  7.51939549E-02  1.05022916E+00  0.00000000E+00
  0.00000000E+00  3.64707621E-01  0.00000000E+00  0.00000000E+00  0.00000000E+00
  1.43467154E+00  0.00000000E+00  0.00000000E+00  0.00000000E+00  0.00000000E+00
 -2.60731425E-02  0.00000000E+00  0.00000000E+00 -7.51939549E-02 -1.05022916E+00
  7.51939549E-02  1.05022916E+00 -7.51939549E-02 -1.05022916E+00  7.51939549E-02
  1.05022916E+00  0.00000000E+00  0.00000000E+00  0.00000000E+00  3.64707621E-01
  0.00000000E+00  0.00000000E+00  0.00000000E+00  1.43467154E+00  0.00000000E+00
  0.00000000E+00 -2.60731425E-02  0.00000000E+00  0.00000000E+00  0.00000000E+00
 -7.51939549E-02 -1.05022916E+00  7.51939549E-02  1.05022916E+00  7.51939549E-02
  1.05022916E+00 -7.51939549E-02 -1.05022916E+00  0.00000000E+00  0.00000000E+00
 -8.95290115E-01  0.00000000E+00  0.00000000E+00  0.00000000E+00  1.41798280E+00
  0.00000000E+00  0.00000000E+00  0.00000000E+00  0.00000000E+00 -8.08503773E-02
  0.00000000E+00  0.00000000E+00 -1.96408344E-01 -1.41554175E-01  1.96408344E-01
  1.41554175E-01 -1.96408344E-01 -1.41554175E-01  1.96408344E-01  1.41554175E-01
  0.00000000E+00  0.00000000E+00  0.00000000E+00 -8.95290115E-01  0.00000000E+00
  0.00000000E+00  0.00000000E+00  1.41798280E+00  0.00000000E+00  0.00000000E+00
 -8.08503773E-02  0.00000000E+00  0.00000000E+00  0.00000000E+00 -1.96408344E-01
 -1.41554175E-01  1.96408344E-01  1.41554175E-01  1.96408344E-01  1.41554175E-01
 -1.96408344E-01 -1.41554175E-01  0.00000000E+00  0.00000000E+00  0.00000000E+00
  0.00000000E+00 -8.95290115E-01  0.00000000E+00  0.00000000E+00  0.00000000E+00
  1.41798280E+00  0.00000000E+00  0.00000000E+00  0.00000000E+00  0.00000000E+00
 -8.08503773E-02 -1.96408344E-01 -1.41554175E-01 -1.96408344E-01 -1.41554175E-01
  1.96408344E-01  1.41554175E-01  1.96408344E-01  1.41554175E-01  0.00000000E+00
  0.00000000E+00 -6.89061435E-01  0.00000000E+00  0.00000000E+00  0.00000000E+00
  1.14578899E+00  0.00000000E+00  0.00000000E+00  0.00000000E+00  0.00000000E+00
  2.62077681E-01  0.00000000E+00  0.00000000E+00  5.35635326E-01 -9.82654094E-01
 -5.35635326E-01  9.82654094E-01  5.35635326E-01 -9.82654094E-01 -5.35635326E-01
  9.82654094E-01  0.00000000E+00  0.00000000E+00  0.00000000E+00  0.00000000E+00
 -6.89061435E-01  0.00000000E+00  0.00000000E+00  0.00000000E+00  1.14578899E+00
  0.00000000E+00  0.00000000E+00  0.00000000E+00  0.00000000E+00  2.62077681E-01
  5.35635326E-01 -9.82654094E-01  5.35635326E-01 -9.82654094E-01 -5.35635326E-01
  9.82654094E-01 -5.35635326E-01  9.82654094E-01  0.00000000E+00  0.00000000E+00
  0.00000000E+00 -6.89061435E-01  0.00000000E+00  0.00000000E+00  0.00000000E+00
  1.14578899E+00  0.00000000E+00  0.00000000E+00  2.62077681E-01  0.00000000E+00
  0.00000000E+00  0.00000000E+00  5.35635326E-01 -9.82654094E-01 -5.35635326E-01
  9.82654094E-01 -5.35635326E-01  9.82654094E-01  5.35635326E-01 -9.82654094E-01
 -1.18587712E-01 -6.60388520E-01  0.00000000E+00  0.00000000E+00  0.00000000E+00
  2.02038301E+00  0.00000000E+00  0.00000000E+00  0.00000000E+00  2.30532300E-15
  0.00000000E+00  0.00000000E+00  2.88968618E-16  0.00000000E+00 -6.42106362E-01
 -1.40678599E-01 -6.42106362E-01 -1.40678599E-01 -6.42106362E-01 -1.40678599E-01
 -6.42106362E-01 -1.40678599E-01  1.82191791E-03 -2.27643412E+00  0.00000000E+00
  0.00000000E+00  0.00000000E+00  5.29165116E+00  0.00000000E+00  0.00000000E+00
  0.00000000E+00  1.70413062E-15  0.00000000E+00  0.00000000E+00 -2.79789063E-17
  0.00000000E+00  1.94139847E-01 -1.31873998E+00  1.94139847E-01 -1.31873998E+00
  1.94139847E-01 -1.31873998E+00  1.94139847E-01 -1.31873998E+00  4.64198321E-16
  4.87707634E-15  0.00000000E+00  0.00000000E+00  0.00000000E+00 -1.56561188E-14
  0.00000000E+00  0.00000000E+00  0.00000000E+00  8.76732322E-01  0.00000000E+00
  0.00000000E+00  4.80978623E-01  0.00000000E+00  1.34840725E-15  3.38695400E-15
  1.34840725E-15  3.38695400E-15  1.34840725E-15  3.38695400E-15  1.34840725E-15
  3.38695400E-15 -2.23088142E-16 -2.41501368E-15  0.00000000E+00  0.00000000E+00
  0.00000000E+00  8.30720451E-15  0.00000000E+00  0.00000000E+00  0.00000000E+00
 -4.80978623E-01  0.00000000E+00  0.00000000E+00  8.76732322E-01  0.00000000E+00
 -3.37650971E-16 -2.05368175E-15 -3.37650971E-16 -2.05368175E-15 -3.37650971E-16
 -2.05368175E-15 -3.37650971E-16 -2.05368175E-15  0.00000000E+00  0.00000000E+00
  0.00000000E+00  1.58280540E-01  0.00000000E+00  0.00000000E+00  0.00000000E+00
  3.70392609E-01  0.00000000E+00  0.00000000E+00  1.11966424E+00  0.00000000E+00
  0.00000000E+00  0.00000000E+00 -4.73385476E-01  6.54913924E-02  4.73385476E-01
 -6.54913924E-02  4.73385476E-01 -6.54913924E-02 -4.73385476E-01  6.54913924E-02
  0.00000000E+00  0.00000000E+00  0.00000000E+00  0.00000000E+00  1.58280540E-01
  0.00000000E+00  0.00000000E+00  0.00000000E+00  3.70392609E-01  0.00000000E+00
  0.00000000E+00  0.00000000E+00  0.00000000E+00  1.11966424E+00 -4.73385476E-01
  6.54913924E-02 -4.73385476E-01  6.54913924E-02  4.73385476E-01 -6.54913924E-02
  4.73385476E-01 -6.54913924E-02  0.00000000E+00  0.00000000E+00  1.58280540E-01
  0.00000000E+00  0.00000000E+00  0.00000000E+00  3.70392609E-01  0.00000000E+00
  0.00000000E+00  0.00000000E+00  0.00000000E+00  1.11966424E+00  0.00000000E+00
  0.00000000E+00 -4.73385476E-01  6.54913924E-02  4.73385476E-01 -6.54913924E-02
 -4.73385476E-01  6.54913924E-02  4.73385476E-01 -6.54913924E-02
Total SCF Density                          R   N=         253
  2.06037291E+00 -7.99013555E-02  2.84569857E-01  0.00000000E+00  0.00000000E+00
  3.94203190E-01  0.00000000E+00  0.00000000E+00 -4.46379522E-18  3.94203190E-01
  0.00000000E+00  0.00000000E+00 -3.38908349E-25  2.98904141E-25  3.94203190E-01
 -2.15203970E-01  2.96894777E-01  0.00000000E+00  0.00000000E+00  0.00000000E+00
  3.18282864E-01  0.00000000E+00  0.00000000E+00  2.06521001E-01 -2.33855909E-18
 -1.77552354E-25  0.00000000E+00  1.08195278E-01  0.00000000E+00  0.00000000E+00
 -2.33855909E-18  2.06521001E-01  1.56594330E-25  0.00000000E+00 -1.22515894E-18
  1.08195278E-01  0.00000000E+00  0.00000000E+00 -1.77552355E-25  1.56594330E-25
  2.06521001E-01  0.00000000E+00 -9.30187715E-26  8.20389571E-26  1.08195278E-01
  1.36955018E-32 -8.21730110E-33 -1.15939096E-19  1.15939095E-19  1.36941798E-19
 -7.53252600E-33 -6.07398892E-20  6.07398889E-20  7.17430956E-20  2.37592802E-32
 -3.77314062E-33  2.65067669E-33 -3.01023312E-18  2.09465511E-02 -1.33874926E-19
  2.96142954E-33 -1.57704547E-18  1.09737891E-02 -7.01363772E-20  6.16058986E-21
  1.11302499E-03  3.17425615E-33 -2.25213998E-33  2.09465511E-02  2.53585282E-18
  1.33874924E-19 -2.51412710E-33  1.09737891E-02  1.32852010E-18  7.01363761E-20
 -6.16058989E-21 -1.26034384E-20  1.11302499E-03  1.18606525E-33  0.00000000E+00
 -6.69374787E-20 -6.69374798E-20 -2.77304297E-18  0.00000000E+00 -3.50681969E-20
 -3.50681975E-20 -1.45278279E-18 -1.48521094E-37 -3.55681885E-21 -3.55681879E-21
  2.37542785E-32 -1.05495783E-33  7.02037598E-34 -1.33874960E-19  1.33874957E-19
  2.09465511E-02  7.87940303E-34 -7.01363950E-20  7.01363938E-20  1.09737891E-02
  7.27659855E-21  8.43950322E-28 -9.56901195E-28 -1.47349609E-19  1.11302499E-03
 -4.95701375E-02  9.01804756E-02  1.33577693E-01  1.33577693E-01  1.33577693E-01
  9.56550365E-02  6.99806585E-02  6.99806585E-02  6.99806585E-02  4.64034027E-20
  7.09784202E-03  7.09784202E-03 -9.85023461E-19  7.09784202E-03  1.64657203E-01
 -5.75536368E-03  3.32897502E-02  1.34995722E-01  1.34995722E-01  1.34995722E-01
  3.44991910E-02  7.07235566E-02  7.07235566E-02  7.07235566E-02  4.68960102E-20
  7.17319102E-03  7.17319102E-03 -9.95480235E-19  7.17319102E-03  1.47738714E-01
  1.42589373E-01 -4.95701375E-02  9.01804756E-02 -1.33577693E-01 -1.33577693E-01
  1.33577693E-01  9.56550365E-02 -6.99806585E-02 -6.99806585E-02  6.99806585E-02
  4.64034030E-20 -7.09784202E-03 -7.09784202E-03 -8.94295082E-19  7.09784202E-03
 -1.63966341E-02 -3.52371475E-02  1.64657203E-01 -5.75536368E-03  3.32897502E-02
 -1.34995722E-01 -1.34995722E-01  1.34995722E-01  3.44991910E-02 -7.07235566E-02
 -7.07235566E-02  7.07235566E-02  4.68960105E-20 -7.17319102E-03 -7.17319102E-03
 -9.03788706E-19  7.17319102E-03 -3.52371475E-02 -4.23289175E-02  1.47738714E-01
  1.42589373E-01 -4.95701375E-02  9.01804756E-02  1.33577693E-01 -1.33577693E-01
 -1.33577693E-01  9.56550365E-02  6.99806585E-02 -6.99806585E-02 -6.99806585E-02
 -1.24976470E-19 -7.09784202E-03  7.09784202E-03  9.39659272E-19 -7.09784202E-03
 -1.63966341E-02 -3.52371475E-02 -1.63966341E-02 -3.52371475E-02  1.64657203E-01
 -5.75536368E-03  3.32897502E-02  1.34995722E-01 -1.34995722E-01 -1.34995722E-01
  3.44991910E-02  7.07235566E-02 -7.07235566E-02 -7.07235566E-02 -1.26303191E-19
 -7.17319102E-03  7.17319102E-03  9.49634471E-19 -7.17319102E-03 -3.52371475E-02
 -4.23289175E-02 -3.52371475E-02 -4.23289175E-02  1.47738714E-01  1.42589373E-01
 -4.95701375E-02  9.01804756E-02 -1.33577693E-01  1.33577693E-01 -1.33577693E-01
  9.56550365E-02 -6.99806585E-02  6.99806585E-02 -6.99806585E-02  3.21696645E-20
  7.09784202E-03 -7.09784202E-03  9.39659271E-19 -7.09784202E-03 -1.63966341E-02
 -3.52371475E-02 -1.63966341E-02 -3.52371475E-02 -1.63966341E-02 -3.52371475E-02
  1.64657203E-01 -5.75536368E-03  3.32897502E-02 -1.34995722E-01  1.34995722E-01
 -1.34995722E-01  3.44991910E-02 -7.07235566E-02  7.07235566E-02 -7.07235566E-02
  3.25111700E-20  7.17319102E-03 -7.17319102E-03  9.49634470E-19 -7.17319102E-03
 -3.52371475E-02 -4.23289175E-02 -3.52371475E-02 -4.23289175E-02 -3.52371475E-02
 -4.23289175E-02  1.47738714E-01  1.42589373E-01
Grdnt Energy                               R     -4.044716537209766E+01
Grdnt NVar                                 I               14
Grdnt IGetFC                               I                4
Internal Forces                            R   N=          14
 -1.09708040E-04 -1.09708040E-04 -1.09708040E-04 -1.09708040E-04 -7.15960531E-16
  6.85443644E-16 -1.34112131E-16  3.33397647E-16  9.81415365E-16 -1.15022126E-15
 -2.52979893E-16  3.58001363E-16  5.30061972E-17 -3.04957473E-16
Internal Force Constants                   R   N=         105
  3.54597070E-01  1.70697697E-03  3.54597070E-01  1.70697697E-03  1.70697696E-03
  3.54597070E-01  1.70697697E-03  1.70697696E-03  1.70697696E-03  3.54597070E-01
  1.97311918E-03  1.97311919E-03 -1.23893531E-03 -2.70730307E-03  2.05298710E-02
  3.09235059E-03 -7.98025965E-04  3.44148695E-03 -5.73581159E-03 -9.14425232E-03
  3.86699666E-02  6.04305157E-03 -4.85000278E-03 -5.36871965E-03  4.17567084E-03
 -1.36190162E-02 -2.35202376E-02  7.55486222E-02 -7.98025959E-04  3.09235059E-03
  3.44148695E-03 -5.73581158E-03 -9.14425232E-03 -2.21716739E-03  2.59483596E-02
  3.86699666E-02 -4.85000277E-03  6.04305158E-03 -5.36871964E-03  4.17567084E-03
 -1.36190162E-02  2.59483596E-02 -3.66902987E-02 -2.35202376E-02  7.55486222E-02
 -5.46049262E-03 -5.46049262E-03  5.09340069E-03  5.82758457E-03  2.49966661E-02
 -2.97366689E-02 -2.76674293E-02 -2.97366689E-02 -2.76674293E-02  8.98115304E-02
  3.82154876E-03  3.82154877E-03  2.69756383E-03 -1.03406614E-02  1.39444781E-02
  1.11233133E-02 -1.51929053E-02  1.11233133E-02 -1.51929053E-02 -5.80529421E-03
  3.07016490E-02 -3.14715781E-03 -3.14715781E-03  8.09269151E-03 -1.79837589E-03
 -8.46403396E-03  9.71246112E-03 -7.11594593E-03  9.71246112E-03 -7.11594593E-03
  3.27100358E-03  1.52900476E-03  1.90815005E-02  4.14408357E-03 -7.29124139E-03
  4.04634575E-03 -8.99187950E-04 -4.23201698E-03  1.47477817E-02  5.14832363E-04
 -5.03532060E-03 -7.63077829E-03  1.63550180E-03  7.64502379E-04  9.54075023E-03
  1.93790754E-02  7.29124138E-03 -4.14408358E-03 -4.04634576E-03  8.99187939E-04
  4.23201698E-03  5.03532059E-03  7.63077829E-03 -1.47477817E-02 -5.14832360E-04
 -1.63550178E-03 -7.64502383E-04 -9.54075023E-03  9.83832515E-03  1.93790754E-02
Mulliken Charges                           R   N=           5
 -7.66220929E-01  1.91555232E-01  1.91555232E-01  1.91555232E-01  1.91555232E-01
Optimization MaxStp                        I                2
Optimization Job offset                    I                0
Optimization Num results per geometry      I                2
Optimization Num geometry variables        I               15
Opt point       1 Results for each geome   R   N=           2
 -4.04471654E+01  0.00000000E+00
Opt point       1 Geometries               R   N=          15
  0.00000000E+00  0.00000000E+00  0.00000000E+00  1.19499634E+00  1.19499634E+00
  1.19499634E+00 -1.19499634E+00 -1.19499634E+00  1.19499634E+00  1.19499634E+00
 -1.19499634E+00 -1.19499634E+00 -1.19499634E+00  1.19499634E+00 -1.19499634E+00
Opt point       1 Gradient at each geome   R   N=          15
 -5.29958022E-16  5.95281203E-16 -1.23664100E-15  6.33399667E-05  6.33399667E-05
  6.33399667E-05 -6.33399667E-05 -6.33399667E-05  6.33399667E-05  6.33399667E-05