 Entering Gaussian System, Link 0=g09
 Input=methane.df-bp86svp.prop.com
 Output=methane.df-bp86svp.prop.log
 Initial command:
 /home/chemsoft/gaussian/g09e01/g09/l1.exe "/scr/martin/g09job.inter1515752431/Gau-17491.inp" -scrdir="/scr/martin/g09job.inter1515752431/"
 Entering Link 1 = /home/chemsoft/gaussian/g09e01/g09/l1.exe PID=     17492.
  
 Copyright (c) 1988,1990,1992,1993,1995,1998,2003,2009,2015,
            Gaussian, Inc.  All Rights Reserved.
  
 This is part of the Gaussian(R) 09 program.  It is based on
 the Gaussian(R) 03 system (copyright 2003, Gaussian, Inc.),
 the Gaussian(R) 98 system (copyright 1998, Gaussian, Inc.),
 the Gaussian(R) 94 system (copyright 1995, Gaussian, Inc.),
 the Gaussian 92(TM) system (copyright 1992, Gaussian, Inc.),
 the Gaussian 90(TM) system (copyright 1990, Gaussian, Inc.),
 the Gaussian 88(TM) system (copyright 1988, Gaussian, Inc.),
 the Gaussian 86(TM) system (copyright 1986, Carnegie Mellon
 University), and the Gaussian 82(TM) system (copyright 1983,
 Carnegie Mellon University). Gaussian is a federally registered
 trademark of Gaussian, Inc.
  
 This software contains proprietary and confidential information,
 including trade secrets, belonging to Gaussian, Inc.
  
 This software is provided under written license and may be
 used, copied, transmitted, or stored only in accord with that
 written license.
  
 The following legend is applicable only to US Government
 contracts under FAR:
  
                    RESTRICTED RIGHTS LEGEND
  
 Use, reproduction and disclosure by the US Government is
 subject to restrictions as set forth in subparagraphs (a)
 and (c) of the Commercial Computer Software - Restricted
 Rights clause in FAR 52.227-19.
  
 Gaussian, Inc.
 340 Quinnipiac St., Bldg. 40, Wallingford CT 06492
  
  
 ---------------------------------------------------------------
 Warning -- This program may not be used in any manner that
 competes with the business of Gaussian, Inc. or will provide
 assistance to any competitor of Gaussian, Inc.  The licensee
 of this program is prohibited from giving any competitor of
 Gaussian, Inc. access to this program.  By using this program,
 the user acknowledges that Gaussian, Inc. is engaged in the
 business of creating and licensing software in the field of
 computational chemistry and represents and warrants to the
 licensee that it is not a competitor of Gaussian, Inc. and that
 it will not use this program in any manner prohibited above.
 ---------------------------------------------------------------
  

 Cite this work as:
 Gaussian 09, Revision E.01,
 M. J. Frisch, G. W. Trucks, H. B. Schlegel, G. E. Scuseria, 
 M. A. Robb, J. R. Cheeseman, G. Scalmani, V. Barone, B. Mennucci, 
 G. A. Petersson, H. Nakatsuji, M. Caricato, X. Li, H. P. Hratchian, 
 A. F. Izmaylov, J. Bloino, G. Zheng, J. L. Sonnenberg, M. Hada, 
 M. Ehara, K. Toyota, R. Fukuda, J. Hasegawa, M. Ishida, T. Nakajima, 
 Y. Honda, O. Kitao, H. Nakai, T. Vreven, J. A. Montgomery, Jr., 
 J. E. Peralta, F. Ogliaro, M. Bearpark, J. J. Heyd, E. Brothers, 
 K. N. Kudin, V. N. Staroverov, T. Keith, R. Kobayashi, J. Normand, 
 K. Raghavachari, A. Rendell, J. C. Burant, S. S. Iyengar, J. Tomasi, 
 M. Cossi, N. Rega, J. M. Millam, M. Klene, J. E. Knox, J. B. Cross, 
 V. Bakken, C. Adamo, J. Jaramillo, R. Gomperts, R. E. Stratmann, 
 O. Yazyev, A. J. Austin, R. Cammi, C. Pomelli, J. W. Ochterski, 
 R. L. Martin, K. Morokuma, V. G. Zakrzewski, G. A. Voth, 
 P. Salvador, J. J. Dannenberg, S. Dapprich, A. D. Daniels, 
 O. Farkas, J. B. Foresman, J. V. Ortiz, J. Cioslowski, 
 and D. J. Fox, Gaussian, Inc., Wallingford CT, 2013.
 
 ******************************************
 Gaussian 09:  ES64L-G09RevE.01 30-Nov-2015
                12-Jan-2018 
 ******************************************
 %chk=methane.df-bp86svp.chk
 ----------------------------------------------------------------------
 #P BP86/def2SVP/W06 DenFit scf(xqc,MaxConventionalCycle=500) int(ultra
 finegrid) gfinput gfoldprint iop(6/7=3) symmetry(loose) geom(allcheck)
  guess(read,only) output(wfx)
 ----------------------------------------------------------------------
 1/29=7,38=1/1;
 2/12=2,17=4,18=3,40=1/2;
 3/5=43,7=101,11=2,14=-4,16=1,24=11,25=1,30=1,74=404,75=-5,82=40,89=1,116=-2/1,2,3;
 4/5=1/1;
 6/7=3,28=1/1;
 99/5=2,6=200/99;
 Leave Link    1 at Fri Jan 12 19:20:32 2018, MaxMem=           0 cpu:         0.1
 (Enter /home/chemsoft/gaussian/g09e01/g09/l101.exe)
 Structure from the checkpoint file:  "methane.df-bp86svp.chk"
 ------------------------
 Methane DF-BP86/def2-SVP
 ------------------------
 Charge =  0 Multiplicity = 1
 Redundant internal coordinates found in file.
 C,0,0.,0.,0.
 H,0,0.6390503888,0.6390503888,0.6390503888
 H,0,-0.6390503888,-0.6390503888,0.6390503888
 H,0,0.6390503888,-0.6390503888,-0.6390503888
 H,0,-0.6390503888,0.6390503888,-0.6390503888
 Recover connectivity data from disk.
 NAtoms=      5 NQM=        5 NQMF=       0 NMMI=      0 NMMIF=      0
                NMic=       0 NMicF=      0.
                    Isotopes and Nuclear Properties:
 (Nuclear quadrupole moments (NQMom) in fm**2, nuclear magnetic moments (NMagM)
  in nuclear magnetons)

  Atom         1           2           3           4           5
 IAtWgt=          12           1           1           1           1
 AtmWgt=  12.0000000   1.0078250   1.0078250   1.0078250   1.0078250
 NucSpn=           0           1           1           1           1
 AtZEff=  -3.6000000  -1.0000000  -1.0000000  -1.0000000  -1.0000000
 NQMom=    0.0000000   0.0000000   0.0000000   0.0000000   0.0000000
 NMagM=    0.0000000   2.7928460   2.7928460   2.7928460   2.7928460
 AtZNuc=   6.0000000   1.0000000   1.0000000   1.0000000   1.0000000
 Leave Link  101 at Fri Jan 12 19:20:32 2018, MaxMem=    33554432 cpu:         0.2
 (Enter /home/chemsoft/gaussian/g09e01/g09/l202.exe)
                          Input orientation:                          
 ---------------------------------------------------------------------
 Center     Atomic      Atomic             Coordinates (Angstroms)
 Number     Number       Type             X           Y           Z
 ---------------------------------------------------------------------
      1          6           0        0.000000    0.000000    0.000000
      2          1           0        0.639050    0.639050    0.639050
      3          1           0       -0.639050   -0.639050    0.639050
      4          1           0        0.639050   -0.639050   -0.639050
      5          1           0       -0.639050    0.639050   -0.639050
 ---------------------------------------------------------------------
                    Distance matrix (angstroms):
                    1          2          3          4          5
     1  C    0.000000
     2  H    1.106868   0.000000
     3  H    1.106868   1.807507   0.000000
     4  H    1.106868   1.807507   1.807507   0.000000
     5  H    1.106868   1.807507   1.807507   1.807507   0.000000
 Stoichiometry    CH4
 Framework group  TD[O(C),4C3(H)]
 Deg. of freedom     1
 Full point group                 TD      NOp  24
 Largest Abelian subgroup         D2      NOp   4
 Largest concise Abelian subgroup D2      NOp   4
                         Standard orientation:                         
 ---------------------------------------------------------------------
 Center     Atomic      Atomic             Coordinates (Angstroms)
 Number     Number       Type             X           Y           Z
 ---------------------------------------------------------------------
      1          6           0        0.000000    0.000000    0.000000
      2          1           0        0.639050    0.639050    0.639050
      3          1           0       -0.639050   -0.639050    0.639050
      4          1           0        0.639050   -0.639050   -0.639050
      5          1           0       -0.639050    0.639050   -0.639050
 ---------------------------------------------------------------------
 Rotational constants (GHZ):    153.4870919    153.4870919    153.4870919
 Leave Link  202 at Fri Jan 12 19:20:32 2018, MaxMem=    33554432 cpu:         0.0
 (Enter /home/chemsoft/gaussian/g09e01/g09/l301.exe)
 Standard basis: def2SVP (5D, 7F)
 ======================================================================================================
                                       Pseudopotential Parameters
 ======================================================================================================
  Center     Atomic      Valence      Angular      Power
  Number     Number     Electrons     Momentum     of R      Exponent        Coefficient   SO-Coeffient
 ======================================================================================================
    1          6
                                   No pseudopotential on this center.
    2          1
                                   No pseudopotential on this center.
    3          1
                                   No pseudopotential on this center.
    4          1
                                   No pseudopotential on this center.
    5          1
                                   No pseudopotential on this center.
 ======================================================================================================
 Ernie: Thresh=  0.10000D-02 Tol=  0.10000D-05 Strict=F.
 AO basis set in the form of general basis input (Overlap normalization):
      1 0
 S   5 1.00       0.000000000000
      0.1238401694D+04  0.5517365048D-02
      0.1862900499D+03  0.4108882856D-01
      0.4225117635D+02  0.1822538213D+00
      0.1167655793D+02  0.4682845944D+00
      0.3593050648D+01  0.4457581734D+00
 S   1 1.00       0.000000000000
      0.4024514736D+00  0.1000000000D+01
 S   1 1.00       0.000000000000
      0.1309018267D+00  0.1000000000D+01
 P   3 1.00       0.000000000000
      0.9468097062D+01  0.5688833201D-01
      0.2010354514D+01  0.3129405934D+00
      0.5477100471D+00  0.7606501651D+00
 P   1 1.00       0.000000000000
      0.1526861379D+00  0.1000000000D+01
 D   1 1.00       0.000000000000
      0.8000000000D+00  0.1000000000D+01
 ****
      2 0
 S   3 1.00       0.000000000000
      0.1301070100D+02  0.3348548481D-01
      0.1962257200D+01  0.2347218709D+00
      0.4445379600D+00  0.8137702853D+00
 S   1 1.00       0.000000000000
      0.1219496200D+00  0.1000000000D+01
 P   1 1.00       0.000000000000
      0.8000000000D+00  0.1000000000D+01
 ****
      3 0
 S   3 1.00       0.000000000000
      0.1301070100D+02  0.3348548481D-01
      0.1962257200D+01  0.2347218709D+00
      0.4445379600D+00  0.8137702853D+00
 S   1 1.00       0.000000000000
      0.1219496200D+00  0.1000000000D+01
 P   1 1.00       0.000000000000
      0.8000000000D+00  0.1000000000D+01
 ****
      4 0
 S   3 1.00       0.000000000000
      0.1301070100D+02  0.3348548481D-01
      0.1962257200D+01  0.2347218709D+00
      0.4445379600D+00  0.8137702853D+00
 S   1 1.00       0.000000000000
      0.1219496200D+00  0.1000000000D+01
 P   1 1.00       0.000000000000
      0.8000000000D+00  0.1000000000D+01
 ****
      5 0
 S   3 1.00       0.000000000000
      0.1301070100D+02  0.3348548481D-01
      0.1962257200D+01  0.2347218709D+00
      0.4445379600D+00  0.8137702853D+00
 S   1 1.00       0.000000000000
      0.1219496200D+00  0.1000000000D+01
 P   1 1.00       0.000000000000
      0.8000000000D+00  0.1000000000D+01
 ****

 ***********************************************************************************************************************************
 *             ATOMIC CENTER             *        ATOMIC ORBITAL       *                     GAUSSIAN FUNCTIONS                    *
 ***********************************************************************************************************************************
 *                                       * FUNCTION    SHELL    SCALE  *                                                           *
 *    ATOM   X-COORD  Y-COORD  Z-COORD   *  NUMBER     TYPE     FACTOR *  EXPONENT    S-COEF      P-COEF      D-COEF      F-COEF   *
 ***********************************************************************************************************************************
 *     C      0.00000  0.00000  0.00000                                                                                            *
+                                                1   S           1.00                                                               
+                                                                      0.123840D+040.820896D+000.000000D+000.000000D+000.000000D+00 
 *                                                                     0.186290D+030.147664D+010.000000D+000.000000D+000.000000D+00*
 *                                                                     0.422512D+020.215261D+010.000000D+000.000000D+000.000000D+00*
 *                                                                     0.116766D+020.210817D+010.000000D+000.000000D+000.000000D+00*
 *                                                                     0.359305D+010.829100D+000.000000D+000.000000D+000.000000D+00*
 *                                               2   S           1.00                                                              *
+                                                                      0.402451D+000.360118D+000.000000D+000.000000D+000.000000D+00 
 *                                               3   S           1.00                                                              *
+                                                                      0.130902D+000.155103D+000.000000D+000.000000D+000.000000D+00 
 *                                           4-  6   P           1.00                                                              *
+                                                                      0.946810D+010.000000D+000.134676D+010.000000D+000.000000D+00 
 *                                                                     0.201035D+010.000000D+000.106781D+010.000000D+000.000000D+00*
 *                                                                     0.547710D+000.000000D+000.510874D+000.000000D+000.000000D+00*
 *                                           7-  9   P           1.00                                                              *
+                                                                      0.152686D+000.000000D+000.136047D+000.000000D+000.000000D+00 
 *                                          10- 14   D           1.00                                                              *
+                                                                      0.800000D+000.000000D+000.000000D+000.111382D+010.000000D+00 
 *---------------------------------------------------------------------------------------------------------------------------------*
 *     H      1.20763  1.20763  1.20763                                                                                            *
+                                               15   S           1.00                                                               
+                                                                      0.130107D+020.163490D+000.000000D+000.000000D+000.000000D+00 
 *                                                                     0.196226D+010.277352D+000.000000D+000.000000D+000.000000D+00*
 *                                                                     0.444538D+000.315750D+000.000000D+000.000000D+000.000000D+00*
 *                                              16   S           1.00                                                              *
+                                                                      0.121950D+000.147077D+000.000000D+000.000000D+000.000000D+00 
 *                                          17- 19   P           1.00                                                              *
+                                                                      0.800000D+000.000000D+000.107846D+010.000000D+000.000000D+00 
 *---------------------------------------------------------------------------------------------------------------------------------*
 *     H     -1.20763 -1.20763  1.20763                                                                                            *
+                                               20   S           1.00                                                               
+                                                                      0.130107D+020.163490D+000.000000D+000.000000D+000.000000D+00 
 *                                                                     0.196226D+010.277352D+000.000000D+000.000000D+000.000000D+00*
 *                                                                     0.444538D+000.315750D+000.000000D+000.000000D+000.000000D+00*
 *                                              21   S           1.00                                                              *
+                                                                      0.121950D+000.147077D+000.000000D+000.000000D+000.000000D+00 
 *                                          22- 24   P           1.00                                                              *
+                                                                      0.800000D+000.000000D+000.107846D+010.000000D+000.000000D+00 
 *---------------------------------------------------------------------------------------------------------------------------------*
 *     H      1.20763 -1.20763 -1.20763                                                                                            *
+                                               25   S           1.00                                                               
+                                                                      0.130107D+020.163490D+000.000000D+000.000000D+000.000000D+00 
 *                                                                     0.196226D+010.277352D+000.000000D+000.000000D+000.000000D+00*
 *                                                                     0.444538D+000.315750D+000.000000D+000.000000D+000.000000D+00*
 *                                              26   S           1.00                                                              *
+                                                                      0.121950D+000.147077D+000.000000D+000.000000D+000.000000D+00 
 *                                          27- 29   P           1.00                                                              *
+                                                                      0.800000D+000.000000D+000.107846D+010.000000D+000.000000D+00 
 *---------------------------------------------------------------------------------------------------------------------------------*
 *     H     -1.20763  1.20763 -1.20763                                                                                            *
+                                               30   S           1.00                                                               
+                                                                      0.130107D+020.163490D+000.000000D+000.000000D+000.000000D+00 
 *                                                                     0.196226D+010.277352D+000.000000D+000.000000D+000.000000D+00*
 *                                                                     0.444538D+000.315750D+000.000000D+000.000000D+000.000000D+00*
 *                                              31   S           1.00                                                              *
+                                                                      0.121950D+000.147077D+000.000000D+000.000000D+000.000000D+00 
 *                                          32- 34   P           1.00                                                              *
+                                                                      0.800000D+000.000000D+000.107846D+010.000000D+000.000000D+00 
 ***********************************************************************************************************************************
 There are    11 symmetry adapted cartesian basis functions of A   symmetry.
 There are     8 symmetry adapted cartesian basis functions of B1  symmetry.
 There are     8 symmetry adapted cartesian basis functions of B2  symmetry.
 There are     8 symmetry adapted cartesian basis functions of B3  symmetry.
 There are    10 symmetry adapted basis functions of A   symmetry.
 There are     8 symmetry adapted basis functions of B1  symmetry.
 There are     8 symmetry adapted basis functions of B2  symmetry.
 There are     8 symmetry adapted basis functions of B3  symmetry.
    34 basis functions,    53 primitive gaussians,    35 cartesian basis functions
     5 alpha electrons        5 beta electrons
       nuclear repulsion energy        13.2306450596 Hartrees.
 IExCor=  404 DFT=T Ex=B Corr=P86 ExCW=0 ScaHFX=  0.000000
 ScaDFX=  1.000000  1.000000  1.000000  1.000000 ScalE2=  1.000000  1.000000
 IRadAn=      5 IRanWt=     -1 IRanGd=            0 ICorTp=0 IEmpDi=  4
 NAtoms=    5 NActive=    5 NUniq=    2 SFac= 4.00D+00 NAtFMM=   60 NAOKFM=F Big=F
 Integral buffers will be    131072 words long.
 Raffenetti 2 integral format.
 Two-electron integral symmetry is turned on.
 Standard density basis: W06 (5D, 7F)
    93 Density fitting functions
 Density basis set in the form of general basis input (Coulomb normalization):
      1 0
 S   7 1.00       0.000000000000
      0.1861091633D+04  0.1630432275D-02
      0.6429939764D+03  0.6165022455D-02
      0.2351105725D+03  0.3437464972D-01
      0.9070288940D+02  0.1300917169D+00
      0.3677945520D+02  0.3381150662D+00
      0.1560462730D+02  0.4227614567D+00
      0.6890729400D+01  0.1055268299D+00
 S   1 1.00       0.000000000000
      0.3147885000D+01 -0.1000000000D+01
 S   1 1.00       0.000000000000
      0.1477728700D+01  0.1000000000D+01
 S   1 1.00       0.000000000000
      0.7076466000D+00  0.1000000000D+01
 S   1 1.00       0.000000000000
      0.3430122000D+00  0.1000000000D+01
 S   1 1.00       0.000000000000
      0.1669453000D+00  0.1000000000D+01
 P   2 1.00       0.000000000000
      0.1354728920D+02 -0.5516210369D+00
      0.5466941900D+01 -0.4848245610D+00
 P   1 1.00       0.000000000000
      0.2175172100D+01  0.1000000000D+01
 P   1 1.00       0.000000000000
      0.8582194000D+00  0.1000000000D+01
 P   1 1.00       0.000000000000
      0.3376720000D+00  0.1000000000D+01
 D   2 1.00       0.000000000000
      0.5928725300D+01 -0.2191848255D+00
      0.1980920900D+01 -0.8002209528D+00
 D   1 1.00       0.000000000000
      0.8055417000D+00 -0.1000000000D+01
 D   1 1.00       0.000000000000
      0.3531244000D+00 -0.1000000000D+01
 F   2 1.00       0.000000000000
      0.1675562600D+01  0.4584544753D+00
      0.5997536000D+00  0.6032297392D+00
 G   1 1.00       0.000000000000
      0.1002460000D+01 -0.1000000000D+01
 ****
      2 0
 S   3 1.00       0.000000000000
      0.1567529270D+02  0.3261158972D-01
      0.3606357800D+01  0.2298046837D+00
      0.1208001600D+01  0.7572083240D+00
 S   1 1.00       0.000000000000
      0.4726794000D+00  0.1000000000D+01
 S   1 1.00       0.000000000000
      0.2018100000D+00  0.1000000000D+01
 P   2 1.00       0.000000000000
      0.2028136500D+01  0.3618361986D+00
      0.5358730000D+00  0.7039303088D+00
 D   1 1.00       0.000000000000
      0.2216512400D+01  0.1000000000D+01
 ****
      3 0
 S   3 1.00       0.000000000000
      0.1567529270D+02  0.3261158972D-01
      0.3606357800D+01  0.2298046837D+00
      0.1208001600D+01  0.7572083240D+00
 S   1 1.00       0.000000000000
      0.4726794000D+00  0.1000000000D+01
 S   1 1.00       0.000000000000
      0.2018100000D+00  0.1000000000D+01
 P   2 1.00       0.000000000000
      0.2028136500D+01  0.3618361986D+00
      0.5358730000D+00  0.7039303088D+00
 D   1 1.00       0.000000000000
      0.2216512400D+01  0.1000000000D+01
 ****
      4 0
 S   3 1.00       0.000000000000
      0.1567529270D+02  0.3261158972D-01
      0.3606357800D+01  0.2298046837D+00
      0.1208001600D+01  0.7572083240D+00
 S   1 1.00       0.000000000000
      0.4726794000D+00  0.1000000000D+01
 S   1 1.00       0.000000000000
      0.2018100000D+00  0.1000000000D+01
 P   2 1.00       0.000000000000
      0.2028136500D+01  0.3618361986D+00
      0.5358730000D+00  0.7039303088D+00
 D   1 1.00       0.000000000000
      0.2216512400D+01  0.1000000000D+01
 ****
      5 0
 S   3 1.00       0.000000000000
      0.1567529270D+02  0.3261158972D-01
      0.3606357800D+01  0.2298046837D+00
      0.1208001600D+01  0.7572083240D+00
 S   1 1.00       0.000000000000
      0.4726794000D+00  0.1000000000D+01
 S   1 1.00       0.000000000000
      0.2018100000D+00  0.1000000000D+01
 P   2 1.00       0.000000000000
      0.2028136500D+01  0.3618361986D+00
      0.5358730000D+00  0.7039303088D+00
 D   1 1.00       0.000000000000
      0.2216512400D+01  0.1000000000D+01
 ****

 There are    93 symmetry adapted density basis functions of A   symmetry.
 Leave Link  301 at Fri Jan 12 19:20:32 2018, MaxMem=    33554432 cpu:         0.2
 (Enter /home/chemsoft/gaussian/g09e01/g09/l302.exe)
 NPDir=0 NMtPBC=     1 NCelOv=     1 NCel=       1 NClECP=     1 NCelD=      1
         NCelK=      1 NCelE2=     1 NClLst=     1 CellRange=     0.0.
 One-electron integrals computed using PRISM.
 One-electron integral symmetry used in STVInt
  24 Symmetry operations used in ECPInt.
 ECPInt:  NShTT=     171 NPrTT=     553 LenC2=     172 LenP2D=     539.
 LDataN:  DoStor=T MaxTD1= 4 Len=   56
 NBasis=    34 RedAO= T EigKep=  1.89D-02  NBF=    10     8     8     8
 NBsUse=    34 1.00D-06 EigRej= -1.00D+00 NBFU=    10     8     8     8
 Precomputing XC quadrature grid using
 IXCGrd= 4 IRadAn=           5 IRanWt=          -1 IRanGd=           0 AccXCQ= 0.00D+00.
 Generated NRdTot=       0 NPtTot=           0 NUsed=           0 NTot=          32
 NSgBfM=    35    35    35    35    35 MxSgAt=     5 MxSgA2=     5.
 Leave Link  302 at Fri Jan 12 19:20:33 2018, MaxMem=    33554432 cpu:         0.3
 (Enter /home/chemsoft/gaussian/g09e01/g09/l303.exe)
 DipDrv:  MaxL=1.
 Leave Link  303 at Fri Jan 12 19:20:33 2018, MaxMem=    33554432 cpu:         0.1
 (Enter /home/chemsoft/gaussian/g09e01/g09/l401.exe)
 Initial guess from the checkpoint file:  "methane.df-bp86svp.chk"
 B after Tr=     0.000000    0.000000    0.000000
         Rot=    1.000000    0.000000    0.000000    0.000000 Ang=   0.00 deg.
 Guess basis will be translated and rotated to current coordinates.
 JPrj=2 DoOrth=T DoCkMO=T.
 Initial guess orbital symmetries:
       Occupied  (A1) (A1) (T2) (T2) (T2)
       Virtual   (A1) (T2) (T2) (T2) (T2) (T2) (T2) (A1) (T2) (T2)
                 (T2) (A1) (E) (E) (T1) (T1) (T1) (T2) (T2) (T2)
                 (T2) (T2) (T2) (E) (E) (A1) (T2) (T2) (T2)
 The electronic state of the initial guess is 1-A1.
 Leave Link  401 at Fri Jan 12 19:20:33 2018, MaxMem=    33554432 cpu:         0.2
 (Enter /home/chemsoft/gaussian/g09e01/g09/l601.exe)
 Copying SCF densities to generalized density rwf, IOpCl= 0 IROHF=0.

 **********************************************************************

            Population analysis using the SCF density.

 **********************************************************************

 Orbital symmetries:
       Occupied  (A1) (A1) (T2) (T2) (T2)
       Virtual   (A1) (T2) (T2) (T2) (T2) (T2) (T2) (A1) (T2) (T2)
                 (T2) (A1) (E) (E) (T1) (T1) (T1) (T2) (T2) (T2)
                 (T2) (T2) (T2) (E) (E) (A1) (T2) (T2) (T2)
 The electronic state is 1-A1.
 Alpha  occ. eigenvalues --   -9.90389  -0.61603  -0.34439  -0.34439  -0.34439
 Alpha virt. eigenvalues --    0.05653   0.11968   0.11968   0.11968   0.38652
 Alpha virt. eigenvalues --    0.38652   0.38652   0.59958   0.62970   0.62970
 Alpha virt. eigenvalues --    0.62970   0.72563   1.03515   1.03515   1.45743
 Alpha virt. eigenvalues --    1.45743   1.45743   1.68023   1.68023   1.68023
 Alpha virt. eigenvalues --    2.04135   2.04135   2.04135   2.42354   2.42354
 Alpha virt. eigenvalues --    2.48161   2.80350   2.80350   2.80350
     Molecular Orbital Coefficients:
                           1         2         3         4         5
                        (A1)--O   (A1)--O   (T2)--O   (T2)--O   (T2)--O
     Eigenvalues --    -9.90389  -0.61603  -0.34439  -0.34439  -0.34439
   1 1   C  1S          0.98760  -0.25104   0.00000   0.00000   0.00000
   2        2S          0.05251   0.49127   0.00000   0.00000   0.00000
   3        3S         -0.04052   0.12930   0.00000   0.00000   0.00000
   4        4PX         0.00000   0.00000   0.44145   0.00000   0.00000
   5        4PY         0.00000   0.00000   0.00000   0.00000   0.44145
   6        4PZ         0.00000   0.00000   0.00000   0.44145   0.00000
   7        5PX         0.00000   0.00000   0.19004   0.00000   0.00000
   8        5PY         0.00000   0.00000   0.00000   0.00000   0.19004
   9        5PZ         0.00000   0.00000   0.00000   0.19004   0.00000
  10        6D 0        0.00000  -0.00000   0.00000   0.00000   0.00000
  11        6D+1        0.00000   0.00000   0.00000   0.00000   0.01686
  12        6D-1        0.00000   0.00000   0.01686   0.00000   0.00000
  13        6D+2       -0.00000   0.00000   0.00000   0.00000   0.00000
  14        6D-2        0.00000   0.00000   0.00000   0.01686   0.00000
  15 2   H  1S         -0.00350   0.17514   0.22264   0.22264   0.22264
  16        2S          0.00766   0.03623   0.09591   0.09591   0.09591
  17        3PX         0.00160  -0.01164   0.00589  -0.00793  -0.00793
  18        3PY         0.00160  -0.01164  -0.00793  -0.00793   0.00589
  19        3PZ         0.00160  -0.01164  -0.00793   0.00589  -0.00793
  20 3   H  1S         -0.00350   0.17514  -0.22264   0.22264  -0.22264
  21        2S          0.00766   0.03623  -0.09591   0.09591  -0.09591
  22        3PX        -0.00160   0.01164   0.00589   0.00793  -0.00793
  23        3PY        -0.00160   0.01164  -0.00793   0.00793   0.00589
  24        3PZ         0.00160  -0.01164   0.00793   0.00589   0.00793
  25 4   H  1S         -0.00350   0.17514   0.22264  -0.22264  -0.22264
  26        2S          0.00766   0.03623   0.09591  -0.09591  -0.09591
  27        3PX         0.00160  -0.01164   0.00589   0.00793   0.00793
  28        3PY        -0.00160   0.01164   0.00793  -0.00793   0.00589
  29        3PZ        -0.00160   0.01164   0.00793   0.00589  -0.00793
  30 5   H  1S         -0.00350   0.17514  -0.22264  -0.22264   0.22264
  31        2S          0.00766   0.03623  -0.09591  -0.09591   0.09591
  32        3PX        -0.00160   0.01164   0.00589  -0.00793   0.00793
  33        3PY         0.00160  -0.01164   0.00793   0.00793   0.00589
  34        3PZ        -0.00160   0.01164  -0.00793   0.00589   0.00793
                           6         7         8         9        10
                        (A1)--V   (T2)--V   (T2)--V   (T2)--V   (T2)--V
     Eigenvalues --     0.05653   0.11968   0.11968   0.11968   0.38652
   1 1   C  1S         -0.16217   0.00000   0.00000   0.00000   0.00000
   2        2S          0.29190   0.00000   0.00000   0.00000   0.00000
   3        3S          2.68910   0.00000   0.00000   0.00000   0.00000
   4        4PX         0.00000   0.40214   0.00000   0.00000   0.00000
   5        4PY         0.00000   0.00000   0.00000   0.40214   0.00000
   6        4PZ         0.00000   0.00000   0.40214   0.00000  -0.31328
   7        5PX         0.00000   1.20207   0.00000   0.00000   0.00000
   8        5PY         0.00000   0.00000   0.00000   1.20207   0.00000
   9        5PZ         0.00000   0.00000   1.20207   0.00000   1.13570
  10        6D 0       -0.00000   0.00000   0.00000   0.00000   0.00000
  11        6D+1        0.00000   0.00000   0.00000  -0.02177   0.00000
  12        6D-1        0.00000  -0.02177   0.00000   0.00000   0.00000
  13        6D+2       -0.00000   0.00000   0.00000   0.00000   0.00000
  14        6D-2        0.00000   0.00000  -0.02177   0.00000  -0.08850
  15 2   H  1S         -0.04242  -0.10148  -0.10148  -0.10148  -0.50466
  16        2S         -1.00954  -1.10135  -1.10135  -1.10135   0.12391
  17        3PX        -0.00667   0.00373  -0.00961  -0.00961  -0.01285
  18        3PY        -0.00667  -0.00961  -0.00961   0.00373  -0.01285
  19        3PZ        -0.00667  -0.00961   0.00373  -0.00961   0.03372
  20 3   H  1S         -0.04242   0.10148  -0.10148   0.10148  -0.50466
  21        2S         -1.00954   1.10135  -1.10135   1.10135   0.12391
  22        3PX         0.00667   0.00373   0.00961  -0.00961   0.01285
  23        3PY         0.00667  -0.00961   0.00961   0.00373   0.01285
  24        3PZ        -0.00667   0.00961   0.00373   0.00961   0.03372
  25 4   H  1S         -0.04242  -0.10148   0.10148   0.10148   0.50466
  26        2S         -1.00954  -1.10135   1.10135   1.10135  -0.12391
  27        3PX        -0.00667   0.00373   0.00961   0.00961   0.01285
  28        3PY         0.00667   0.00961  -0.00961   0.00373  -0.01285
  29        3PZ         0.00667   0.00961   0.00373  -0.00961   0.03372
  30 5   H  1S         -0.04242   0.10148   0.10148  -0.10148   0.50466
  31        2S         -1.00954   1.10135   1.10135  -1.10135  -0.12391
  32        3PX         0.00667   0.00373  -0.00961   0.00961  -0.01285
  33        3PY        -0.00667   0.00961   0.00961   0.00373   0.01285
  34        3PZ         0.00667  -0.00961   0.00373   0.00961   0.03372
                          11        12        13        14        15
                        (T2)--V   (T2)--V   (A1)--V   (T2)--V   (T2)--V
     Eigenvalues --     0.38652   0.38652   0.59958   0.62970   0.62970
   1 1   C  1S          0.00000   0.00000   0.29862   0.00000   0.00000
   2        2S          0.00000   0.00000  -1.77007   0.00000   0.00000
   3        3S          0.00000   0.00000   4.15886   0.00000   0.00000
   4        4PX         0.00000  -0.31328   0.00000  -0.93040   0.00000
   5        4PY        -0.31328   0.00000   0.00000   0.00000   0.00000
   6        4PZ         0.00000   0.00000   0.00000   0.00000  -0.93040
   7        5PX         0.00000   1.13570   0.00000   1.67247   0.00000
   8        5PY         1.13570   0.00000   0.00000   0.00000   0.00000
   9        5PZ         0.00000   0.00000   0.00000   0.00000   1.67247
  10        6D 0        0.00000   0.00000   0.00000   0.00000   0.00000
  11        6D+1       -0.08850   0.00000   0.00000   0.00000   0.00000
  12        6D-1        0.00000  -0.08850   0.00000   0.13448   0.00000
  13        6D+2        0.00000   0.00000   0.00000   0.00000   0.00000
  14        6D-2        0.00000   0.00000   0.00000   0.00000   0.13448
  15 2   H  1S         -0.50466  -0.50466   0.40865   0.33511   0.33511
  16        2S          0.12391   0.12391  -1.12754  -1.11866  -1.11866
  17        3PX        -0.01285   0.03372   0.05798   0.01884   0.07321
  18        3PY         0.03372  -0.01285   0.05798   0.07321   0.07321
  19        3PZ        -0.01285  -0.01285   0.05798   0.07321   0.01884
  20 3   H  1S          0.50466   0.50466   0.40865  -0.33511   0.33511
  21        2S         -0.12391  -0.12391  -1.12754   1.11866  -1.11866
  22        3PX        -0.01285   0.03372  -0.05798   0.01884  -0.07321
  23        3PY         0.03372  -0.01285  -0.05798   0.07321  -0.07321
  24        3PZ         0.01285   0.01285   0.05798  -0.07321   0.01884
  25 4   H  1S          0.50466  -0.50466   0.40865   0.33511  -0.33511
  26        2S         -0.12391   0.12391  -1.12754  -1.11866   1.11866
  27        3PX         0.01285   0.03372   0.05798   0.01884  -0.07321
  28        3PY         0.03372   0.01285  -0.05798  -0.07321   0.07321
  29        3PZ        -0.01285   0.01285  -0.05798  -0.07321   0.01884
  30 5   H  1S         -0.50466   0.50466   0.40865  -0.33511  -0.33511
  31        2S          0.12391  -0.12391  -1.12754   1.11866   1.11866
  32        3PX         0.01285   0.03372  -0.05798   0.01884   0.07321
  33        3PY         0.03372   0.01285   0.05798  -0.07321  -0.07321
  34        3PZ         0.01285  -0.01285  -0.05798   0.07321   0.01884
                          16        17        18        19        20
                        (T2)--V   (A1)--V   (E)--V    (E)--V    (T1)--V
     Eigenvalues --     0.62970   0.72563   1.03515   1.03515   1.45743
   1 1   C  1S          0.00000   0.11251   0.00000  -0.00000   0.00000
   2        2S          0.00000  -1.50666  -0.00000  -0.00000   0.00000
   3        3S          0.00000   5.25462   0.00000  -0.00000   0.00000
   4        4PX         0.00000   0.00000   0.00000   0.00000   0.00000
   5        4PY        -0.93040   0.00000   0.00000   0.00000   0.00000
   6        4PZ         0.00000   0.00000   0.00000   0.00000   0.00000
   7        5PX         0.00000   0.00000   0.00000   0.00000   0.00000
   8        5PY         1.67247   0.00000   0.00000   0.00000   0.00000
   9        5PZ         0.00000   0.00000   0.00000   0.00000   0.00000
  10        6D 0        0.00000  -0.00000   0.15585   0.36089   0.00000
  11        6D+1        0.13448   0.00000   0.00000   0.00000   0.00000
  12        6D-1        0.00000   0.00000   0.00000   0.00000   0.00000
  13        6D+2        0.00000  -0.00000   0.36089  -0.15585   0.00000
  14        6D-2        0.00000   0.00000   0.00000   0.00000  -0.00000
  15 2   H  1S          0.33511  -0.66281  -0.00000  -0.00000  -0.00000
  16        2S         -1.11866  -0.87319  -0.00000  -0.00000   0.00000
  17        3PX         0.07321  -0.01969   0.17654  -0.23734   0.36337
  18        3PY         0.01884  -0.01969  -0.29381  -0.03421  -0.36337
  19        3PZ         0.07321  -0.01969   0.11727   0.27155  -0.00000
  20 3   H  1S         -0.33511  -0.66281  -0.00000  -0.00000  -0.00000
  21        2S          1.11866  -0.87319  -0.00000  -0.00000   0.00000
  22        3PX         0.07321   0.01969  -0.17654   0.23734  -0.36337
  23        3PY         0.01884   0.01969   0.29381   0.03421   0.36337
  24        3PZ        -0.07321  -0.01969   0.11727   0.27155  -0.00000
  25 4   H  1S         -0.33511  -0.66281  -0.00000  -0.00000   0.00000
  26        2S          1.11866  -0.87319  -0.00000  -0.00000  -0.00000
  27        3PX        -0.07321  -0.01969   0.17654  -0.23734  -0.36337
  28        3PY         0.01884   0.01969   0.29381   0.03421  -0.36337
  29        3PZ         0.07321   0.01969  -0.11727  -0.27155  -0.00000
  30 5   H  1S          0.33511  -0.66281  -0.00000  -0.00000   0.00000
  31        2S         -1.11866  -0.87319  -0.00000  -0.00000  -0.00000
  32        3PX        -0.07321   0.01969  -0.17654   0.23734   0.36337
  33        3PY         0.01884  -0.01969  -0.29381  -0.03421   0.36337
  34        3PZ        -0.07321   0.01969  -0.11727  -0.27155  -0.00000
                          21        22        23        24        25
                        (T1)--V   (T1)--V   (T2)--V   (T2)--V   (T2)--V
     Eigenvalues --     1.45743   1.45743   1.68023   1.68023   1.68023
   1 1   C  1S          0.00000   0.00000   0.00000   0.00000   0.00000
   2        2S          0.00000   0.00000   0.00000   0.00000   0.00000
   3        3S          0.00000   0.00000   0.00000   0.00000   0.00000
   4        4PX        -0.00000   0.00000   0.00000  -0.23525   0.00000
   5        4PY         0.00000   0.00000   0.00000   0.00000  -0.23525
   6        4PZ         0.00000   0.00000  -0.23525   0.00000   0.00000
   7        5PX        -0.00000   0.00000   0.00000   0.88989   0.00000
   8        5PY         0.00000   0.00000   0.00000   0.00000   0.88989
   9        5PZ         0.00000   0.00000   0.88989   0.00000   0.00000
  10        6D 0        0.00000   0.00000   0.00000   0.00000   0.00000
  11        6D+1        0.00000  -0.00000   0.00000   0.00000   0.35587
  12        6D-1       -0.00000   0.00000   0.00000   0.35587   0.00000
  13        6D+2        0.00000   0.00000   0.00000   0.00000   0.00000
  14        6D-2        0.00000   0.00000   0.35587   0.00000   0.00000
  15 2   H  1S          0.00000  -0.00000  -0.26253  -0.26253  -0.26253
  16        2S         -0.00000  -0.00000  -0.07314  -0.07314  -0.07314
  17        3PX         0.00000   0.36337  -0.01900  -0.45974  -0.01900
  18        3PY         0.36337  -0.00000  -0.01900  -0.01900  -0.45974
  19        3PZ        -0.36337  -0.36337  -0.45974  -0.01900  -0.01900
  20 3   H  1S         -0.00000   0.00000  -0.26253   0.26253   0.26253
  21        2S          0.00000   0.00000  -0.07314   0.07314   0.07314
  22        3PX         0.00000   0.36337   0.01900  -0.45974  -0.01900
  23        3PY         0.36337  -0.00000   0.01900  -0.01900  -0.45974
  24        3PZ         0.36337   0.36337  -0.45974   0.01900   0.01900
  25 4   H  1S          0.00000   0.00000   0.26253  -0.26253   0.26253
  26        2S         -0.00000   0.00000   0.07314  -0.07314   0.07314
  27        3PX         0.00000  -0.36337   0.01900  -0.45974   0.01900
  28        3PY        -0.36337  -0.00000  -0.01900   0.01900  -0.45974
  29        3PZ         0.36337  -0.36337  -0.45974   0.01900  -0.01900
  30 5   H  1S         -0.00000  -0.00000   0.26253   0.26253  -0.26253
  31        2S          0.00000  -0.00000   0.07314   0.07314  -0.07314
  32        3PX         0.00000  -0.36337  -0.01900  -0.45974   0.01900
  33        3PY        -0.36337  -0.00000   0.01900   0.01900  -0.45974
  34        3PZ        -0.36337   0.36337  -0.45974  -0.01900   0.01900
                          26        27        28        29        30
                        (T2)--V   (T2)--V   (T2)--V   (E)--V    (E)--V
     Eigenvalues --     2.04135   2.04135   2.04135   2.42354   2.42354
   1 1   C  1S          0.00000   0.00000   0.00000   0.00000  -0.00000
   2        2S          0.00000   0.00000   0.00000  -0.00000  -0.00000
   3        3S          0.00000   0.00000   0.00000  -0.00000  -0.00000
   4        4PX         0.00000   0.00000   0.52177   0.00000   0.00000
   5        4PY         0.52177   0.00000   0.00000   0.00000   0.00000
   6        4PZ         0.00000   0.52177   0.00000   0.00000   0.00000
   7        5PX         0.00000   0.00000   0.82906   0.00000   0.00000
   8        5PY         0.82906   0.00000   0.00000   0.00000   0.00000
   9        5PZ         0.00000   0.82906   0.00000   0.00000   0.00000
  10        6D 0        0.00000   0.00000   0.00000  -0.45802   1.00505
  11        6D+1       -0.40577   0.00000   0.00000   0.00000   0.00000
  12        6D-1        0.00000   0.00000  -0.40577   0.00000   0.00000
  13        6D+2        0.00000   0.00000   0.00000   1.00505   0.45802
  14        6D-2        0.00000  -0.40577   0.00000   0.00000   0.00000
  15 2   H  1S         -0.12017  -0.12017  -0.12017   0.00000  -0.00000
  16        2S         -0.40221  -0.40221  -0.40221   0.00000  -0.00000
  17        3PX         0.38073   0.38073  -0.22372  -0.36430   0.03508
  18        3PY        -0.22372   0.38073   0.38073   0.21253   0.29795
  19        3PZ         0.38073  -0.22372   0.38073   0.15177  -0.33303
  20 3   H  1S          0.12017  -0.12017   0.12017   0.00000  -0.00000
  21        2S          0.40221  -0.40221   0.40221   0.00000  -0.00000
  22        3PX         0.38073  -0.38073  -0.22372   0.36430  -0.03508
  23        3PY        -0.22372  -0.38073   0.38073  -0.21253  -0.29795
  24        3PZ        -0.38073  -0.22372  -0.38073   0.15177  -0.33303
  25 4   H  1S          0.12017   0.12017  -0.12017   0.00000  -0.00000
  26        2S          0.40221   0.40221  -0.40221   0.00000  -0.00000
  27        3PX        -0.38073  -0.38073  -0.22372  -0.36430   0.03508
  28        3PY        -0.22372   0.38073  -0.38073  -0.21253  -0.29795
  29        3PZ         0.38073  -0.22372  -0.38073  -0.15177   0.33303
  30 5   H  1S         -0.12017   0.12017   0.12017   0.00000  -0.00000
  31        2S         -0.40221   0.40221   0.40221   0.00000  -0.00000
  32        3PX        -0.38073   0.38073  -0.22372   0.36430  -0.03508
  33        3PY        -0.22372  -0.38073  -0.38073   0.21253   0.29795
  34        3PZ        -0.38073  -0.22372   0.38073  -0.15177   0.33303
                          31        32        33        34
                        (A1)--V   (T2)--V   (T2)--V   (T2)--V
     Eigenvalues --     2.48161   2.80350   2.80350   2.80350
   1 1   C  1S         -0.29912   0.00000   0.00000   0.00000
   2        2S          1.73590   0.00000   0.00000   0.00000
   3        3S          1.18283   0.00000   0.00000   0.00000
   4        4PX         0.00000   1.03973   0.00000   0.00000
   5        4PY         0.00000   0.00000   1.03973   0.00000
   6        4PZ         0.00000   0.00000   0.00000   1.03973
   7        5PX         0.00000   0.61612   0.00000   0.00000
   8        5PY         0.00000   0.00000   0.61612   0.00000
   9        5PZ         0.00000   0.00000   0.00000   0.61612
  10        6D 0        0.00000   0.00000   0.00000   0.00000
  11        6D+1        0.00000   0.00000   1.35457   0.00000
  12        6D-1        0.00000   1.35457   0.00000   0.00000
  13        6D+2        0.00000   0.00000   0.00000   0.00000
  14        6D-2        0.00000   0.00000   0.00000   1.35457
  15 2   H  1S         -0.53727  -0.63618  -0.63618  -0.63618
  16        2S         -0.31335  -0.27203  -0.27203  -0.27203
  17        3PX         0.44978   0.44296   0.38485   0.38485
  18        3PY         0.44978   0.38485   0.44296   0.38485
  19        3PZ         0.44978   0.38485   0.38485   0.44296
  20 3   H  1S         -0.53727   0.63618   0.63618  -0.63618
  21        2S         -0.31335   0.27203   0.27203  -0.27203
  22        3PX        -0.44978   0.44296   0.38485  -0.38485
  23        3PY        -0.44978   0.38485   0.44296  -0.38485
  24        3PZ         0.44978  -0.38485  -0.38485   0.44296
  25 4   H  1S         -0.53727  -0.63618   0.63618   0.63618
  26        2S         -0.31335  -0.27203   0.27203   0.27203
  27        3PX         0.44978   0.44296  -0.38485  -0.38485
  28        3PY        -0.44978  -0.38485   0.44296   0.38485
  29        3PZ        -0.44978  -0.38485   0.38485   0.44296
  30 5   H  1S         -0.53727   0.63618  -0.63618   0.63618
  31        2S         -0.31335   0.27203  -0.27203   0.27203
  32        3PX        -0.44978   0.44296  -0.38485   0.38485
  33        3PY         0.44978  -0.38485   0.44296  -0.38485
  34        3PZ        -0.44978   0.38485  -0.38485   0.44296
     Density Matrix:
                           1         2         3         4         5
   1 1   C  1S          2.07677
   2        2S         -0.14295   0.48820
   3        3S         -0.14496   0.12279   0.03672
   4        4PX         0.00000   0.00000   0.00000   0.38976
   5        4PY         0.00000   0.00000   0.00000   0.00000   0.38976
   6        4PZ         0.00000   0.00000   0.00000   0.00000   0.00000
   7        5PX         0.00000   0.00000   0.00000   0.16779   0.00000
   8        5PY         0.00000   0.00000   0.00000   0.00000   0.16779
   9        5PZ         0.00000   0.00000   0.00000   0.00000   0.00000
  10        6D 0        0.00000  -0.00000  -0.00000   0.00000   0.00000
  11        6D+1        0.00000   0.00000   0.00000   0.00000   0.01488
  12        6D-1        0.00000   0.00000   0.00000   0.01488   0.00000
  13        6D+2       -0.00000   0.00000   0.00000   0.00000   0.00000
  14        6D-2        0.00000   0.00000   0.00000   0.00000   0.00000
  15 2   H  1S         -0.09485   0.17171   0.04557   0.19657   0.19657
  16        2S         -0.00306   0.03640   0.00875   0.08468   0.08468
  17        3PX         0.00901  -0.01126  -0.00314   0.00520  -0.00700
  18        3PY         0.00901  -0.01126  -0.00314  -0.00700   0.00520
  19        3PZ         0.00901  -0.01126  -0.00314  -0.00700  -0.00700
  20 3   H  1S         -0.09485   0.17171   0.04557  -0.19657  -0.19657
  21        2S         -0.00306   0.03640   0.00875  -0.08468  -0.08468
  22        3PX        -0.00901   0.01126   0.00314   0.00520  -0.00700
  23        3PY        -0.00901   0.01126   0.00314  -0.00700   0.00520
  24        3PZ         0.00901  -0.01126  -0.00314   0.00700   0.00700
  25 4   H  1S         -0.09485   0.17171   0.04557   0.19657  -0.19657
  26        2S         -0.00306   0.03640   0.00875   0.08468  -0.08468
  27        3PX         0.00901  -0.01126  -0.00314   0.00520   0.00700
  28        3PY        -0.00901   0.01126   0.00314   0.00700   0.00520
  29        3PZ        -0.00901   0.01126   0.00314   0.00700  -0.00700
  30 5   H  1S         -0.09485   0.17171   0.04557  -0.19657   0.19657
  31        2S         -0.00306   0.03640   0.00875  -0.08468   0.08468
  32        3PX        -0.00901   0.01126   0.00314   0.00520   0.00700
  33        3PY         0.00901  -0.01126  -0.00314   0.00700   0.00520
  34        3PZ        -0.00901   0.01126   0.00314  -0.00700   0.00700
                           6         7         8         9        10
   6        4PZ         0.38976
   7        5PX         0.00000   0.07223
   8        5PY         0.00000   0.00000   0.07223
   9        5PZ         0.16779   0.00000   0.00000   0.07223
  10        6D 0        0.00000   0.00000   0.00000   0.00000   0.00000
  11        6D+1        0.00000   0.00000   0.00641   0.00000   0.00000
  12        6D-1        0.00000   0.00641   0.00000   0.00000   0.00000
  13        6D+2        0.00000   0.00000   0.00000   0.00000  -0.00000
  14        6D-2        0.01488   0.00000   0.00000   0.00641   0.00000
  15 2   H  1S          0.19657   0.08462   0.08462   0.08462  -0.00000
  16        2S          0.08468   0.03645   0.03645   0.03645  -0.00000
  17        3PX        -0.00700   0.00224  -0.00301  -0.00301   0.00000
  18        3PY        -0.00700  -0.00301   0.00224  -0.00301   0.00000
  19        3PZ         0.00520  -0.00301  -0.00301   0.00224   0.00000
  20 3   H  1S          0.19657  -0.08462  -0.08462   0.08462  -0.00000
  21        2S          0.08468  -0.03645  -0.03645   0.03645  -0.00000
  22        3PX         0.00700   0.00224  -0.00301   0.00301  -0.00000
  23        3PY         0.00700  -0.00301   0.00224   0.00301  -0.00000
  24        3PZ         0.00520   0.00301   0.00301   0.00224   0.00000
  25 4   H  1S         -0.19657   0.08462  -0.08462  -0.08462  -0.00000
  26        2S         -0.08468   0.03645  -0.03645  -0.03645  -0.00000
  27        3PX         0.00700   0.00224   0.00301   0.00301   0.00000
  28        3PY        -0.00700   0.00301   0.00224  -0.00301  -0.00000
  29        3PZ         0.00520   0.00301  -0.00301   0.00224  -0.00000
  30 5   H  1S         -0.19657  -0.08462   0.08462  -0.08462  -0.00000
  31        2S         -0.08468  -0.03645   0.03645  -0.03645  -0.00000
  32        3PX        -0.00700   0.00224   0.00301  -0.00301  -0.00000
  33        3PY         0.00700   0.00301   0.00224   0.00301   0.00000
  34        3PZ         0.00520  -0.00301   0.00301   0.00224  -0.00000
                          11        12        13        14        15
  11        6D+1        0.00057
  12        6D-1        0.00000   0.00057
  13        6D+2        0.00000   0.00000   0.00000
  14        6D-2        0.00000   0.00000   0.00000   0.00057
  15 2   H  1S          0.00751   0.00751   0.00000   0.00751   0.35878
  16        2S          0.00323   0.00323   0.00000   0.00323   0.14075
  17        3PX        -0.00027   0.00020  -0.00000  -0.00027  -0.00853
  18        3PY         0.00020  -0.00027  -0.00000  -0.00027  -0.00853
  19        3PZ        -0.00027  -0.00027  -0.00000   0.00020  -0.00853
  20 3   H  1S         -0.00751  -0.00751   0.00000   0.00751  -0.03777
  21        2S         -0.00323  -0.00323   0.00000   0.00323  -0.03007
  22        3PX        -0.00027   0.00020   0.00000   0.00027   0.00671
  23        3PY         0.00020  -0.00027   0.00000   0.00027   0.00671
  24        3PZ         0.00027   0.00027  -0.00000   0.00020   0.00560
  25 4   H  1S         -0.00751   0.00751   0.00000  -0.00751  -0.03777
  26        2S         -0.00323   0.00323   0.00000  -0.00323  -0.03007
  27        3PX         0.00027   0.00020  -0.00000   0.00027   0.00560
  28        3PY         0.00020   0.00027   0.00000  -0.00027   0.00671
  29        3PZ        -0.00027   0.00027   0.00000   0.00020   0.00671
  30 5   H  1S          0.00751  -0.00751   0.00000  -0.00751  -0.03777
  31        2S          0.00323  -0.00323   0.00000  -0.00323  -0.03007
  32        3PX         0.00027   0.00020   0.00000  -0.00027   0.00671
  33        3PY         0.00020   0.00027  -0.00000   0.00027   0.00560
  34        3PZ         0.00027  -0.00027   0.00000   0.00020   0.00671
                          16        17        18        19        20
  16        2S          0.05793
  17        3PX        -0.00273   0.00060
  18        3PY        -0.00273   0.00021   0.00060
  19        3PZ        -0.00273   0.00021   0.00021   0.00060
  20 3   H  1S         -0.03007  -0.00671  -0.00671   0.00560   0.35878
  21        2S         -0.01565  -0.00195  -0.00195   0.00335   0.14075
  22        3PX         0.00195  -0.00021  -0.00059  -0.00015   0.00853
  23        3PY         0.00195  -0.00059  -0.00021  -0.00015   0.00853
  24        3PZ         0.00335   0.00015   0.00015   0.00009  -0.00853
  25 4   H  1S         -0.03007   0.00560  -0.00671  -0.00671  -0.03777
  26        2S         -0.01565   0.00335  -0.00195  -0.00195  -0.03007
  27        3PX         0.00335   0.00009   0.00015   0.00015  -0.00671
  28        3PY         0.00195  -0.00015  -0.00021  -0.00059  -0.00560
  29        3PZ         0.00195  -0.00015  -0.00059  -0.00021   0.00671
  30 5   H  1S         -0.03007  -0.00671   0.00560  -0.00671  -0.03777
  31        2S         -0.01565  -0.00195   0.00335  -0.00195  -0.03007
  32        3PX         0.00195  -0.00021  -0.00015  -0.00059  -0.00560
  33        3PY         0.00335   0.00015   0.00009   0.00015  -0.00671
  34        3PZ         0.00195  -0.00059  -0.00015  -0.00021   0.00671
                          21        22        23        24        25
  21        2S          0.05793
  22        3PX         0.00273   0.00060
  23        3PY         0.00273   0.00021   0.00060
  24        3PZ        -0.00273  -0.00021  -0.00021   0.00060
  25 4   H  1S         -0.03007   0.00671  -0.00560  -0.00671   0.35878
  26        2S         -0.01565   0.00195  -0.00335  -0.00195   0.14075
  27        3PX        -0.00195  -0.00021  -0.00015   0.00059  -0.00853
  28        3PY        -0.00335   0.00015   0.00009  -0.00015   0.00853
  29        3PZ         0.00195   0.00059   0.00015  -0.00021   0.00853
  30 5   H  1S         -0.03007  -0.00560   0.00671  -0.00671  -0.03777
  31        2S         -0.01565  -0.00335   0.00195  -0.00195  -0.03007
  32        3PX        -0.00335   0.00009   0.00015  -0.00015   0.00671
  33        3PY        -0.00195  -0.00015  -0.00021   0.00059  -0.00671
  34        3PZ         0.00195   0.00015   0.00059  -0.00021  -0.00560
                          26        27        28        29        30
  26        2S          0.05793
  27        3PX        -0.00273   0.00060
  28        3PY         0.00273  -0.00021   0.00060
  29        3PZ         0.00273  -0.00021   0.00021   0.00060
  30 5   H  1S         -0.03007  -0.00671   0.00671  -0.00560   0.35878
  31        2S         -0.01565  -0.00195   0.00195  -0.00335   0.14075
  32        3PX         0.00195  -0.00021   0.00059   0.00015   0.00853
  33        3PY        -0.00195   0.00059  -0.00021  -0.00015  -0.00853
  34        3PZ        -0.00335  -0.00015   0.00015   0.00009   0.00853
                          31        32        33        34
  31        2S          0.05793
  32        3PX         0.00273   0.00060
  33        3PY        -0.00273  -0.00021   0.00060
  34        3PZ         0.00273   0.00021  -0.00021   0.00060
    Full Mulliken population analysis:
                           1         2         3         4         5
   1 1   C  1S          2.07677
   2        2S         -0.04654   0.48820
   3        3S         -0.02200   0.09804   0.03672
   4        4PX         0.00000   0.00000   0.00000   0.38976
   5        4PY         0.00000   0.00000   0.00000   0.00000   0.38976
   6        4PZ         0.00000   0.00000   0.00000   0.00000   0.00000
   7        5PX         0.00000   0.00000   0.00000   0.08925   0.00000
   8        5PY         0.00000   0.00000   0.00000   0.00000   0.08925
   9        5PZ         0.00000   0.00000   0.00000   0.00000   0.00000
  10        6D 0        0.00000   0.00000   0.00000   0.00000   0.00000
  11        6D+1        0.00000   0.00000   0.00000   0.00000   0.00000
  12        6D-1        0.00000   0.00000   0.00000   0.00000   0.00000
  13        6D+2        0.00000   0.00000   0.00000   0.00000   0.00000
  14        6D-2        0.00000   0.00000   0.00000   0.00000   0.00000
  15 2   H  1S         -0.00454   0.06165   0.02048   0.04361   0.04361
  16        2S         -0.00026   0.01877   0.00663   0.01021   0.01021
  17        3PX        -0.00040   0.00231   0.00034  -0.00002   0.00140
  18        3PY        -0.00040   0.00231   0.00034   0.00140  -0.00002
  19        3PZ        -0.00040   0.00231   0.00034   0.00140   0.00140
  20 3   H  1S         -0.00454   0.06165   0.02048   0.04361   0.04361
  21        2S         -0.00026   0.01877   0.00663   0.01021   0.01021
  22        3PX        -0.00040   0.00231   0.00034  -0.00002   0.00140
  23        3PY        -0.00040   0.00231   0.00034   0.00140  -0.00002
  24        3PZ        -0.00040   0.00231   0.00034   0.00140   0.00140
  25 4   H  1S         -0.00454   0.06165   0.02048   0.04361   0.04361
  26        2S         -0.00026   0.01877   0.00663   0.01021   0.01021
  27        3PX        -0.00040   0.00231   0.00034  -0.00002   0.00140
  28        3PY        -0.00040   0.00231   0.00034   0.00140  -0.00002
  29        3PZ        -0.00040   0.00231   0.00034   0.00140   0.00140
  30 5   H  1S         -0.00454   0.06165   0.02048   0.04361   0.04361
  31        2S         -0.00026   0.01877   0.00663   0.01021   0.01021
  32        3PX        -0.00040   0.00231   0.00034  -0.00002   0.00140
  33        3PY        -0.00040   0.00231   0.00034   0.00140  -0.00002
  34        3PZ        -0.00040   0.00231   0.00034   0.00140   0.00140
                           6         7         8         9        10
   6        4PZ         0.38976
   7        5PX         0.00000   0.07223
   8        5PY         0.00000   0.00000   0.07223
   9        5PZ         0.08925   0.00000   0.00000   0.07223
  10        6D 0        0.00000   0.00000   0.00000   0.00000   0.00000
  11        6D+1        0.00000   0.00000   0.00000   0.00000   0.00000
  12        6D-1        0.00000   0.00000   0.00000   0.00000   0.00000
  13        6D+2        0.00000   0.00000   0.00000   0.00000  -0.00000
  14        6D-2        0.00000   0.00000   0.00000   0.00000   0.00000
  15 2   H  1S          0.04361   0.02760   0.02760   0.02760  -0.00000
  16        2S          0.01021   0.01125   0.01125   0.01125   0.00000
  17        3PX         0.00140   0.00037   0.00030   0.00030  -0.00000
  18        3PY         0.00140   0.00030   0.00037   0.00030  -0.00000
  19        3PZ        -0.00002   0.00030   0.00030   0.00037   0.00000
  20 3   H  1S          0.04361   0.02760   0.02760   0.02760  -0.00000
  21        2S          0.01021   0.01125   0.01125   0.01125   0.00000
  22        3PX         0.00140   0.00037   0.00030   0.00030  -0.00000
  23        3PY         0.00140   0.00030   0.00037   0.00030  -0.00000
  24        3PZ        -0.00002   0.00030   0.00030   0.00037   0.00000
  25 4   H  1S          0.04361   0.02760   0.02760   0.02760   0.00000
  26        2S          0.01021   0.01125   0.01125   0.01125   0.00000
  27        3PX         0.00140   0.00037   0.00030   0.00030  -0.00000
  28        3PY         0.00140   0.00030   0.00037   0.00030  -0.00000
  29        3PZ        -0.00002   0.00030   0.00030   0.00037   0.00000
  30 5   H  1S          0.04361   0.02760   0.02760   0.02760  -0.00000
  31        2S          0.01021   0.01125   0.01125   0.01125   0.00000
  32        3PX         0.00140   0.00037   0.00030   0.00030  -0.00000
  33        3PY         0.00140   0.00030   0.00037   0.00030  -0.00000
  34        3PZ        -0.00002   0.00030   0.00030   0.00037   0.00000
                          11        12        13        14        15
  11        6D+1        0.00057
  12        6D-1        0.00000   0.00057
  13        6D+2        0.00000   0.00000   0.00000
  14        6D-2        0.00000   0.00000   0.00000   0.00057
  15 2   H  1S          0.00129   0.00129  -0.00000   0.00129   0.35878
  16        2S          0.00009   0.00009   0.00000   0.00009   0.09639
  17        3PX         0.00001  -0.00004  -0.00000   0.00001   0.00000
  18        3PY        -0.00004   0.00001   0.00000   0.00001   0.00000
  19        3PZ         0.00001   0.00001  -0.00000  -0.00004   0.00000
  20 3   H  1S          0.00129   0.00129  -0.00000   0.00129  -0.00202
  21        2S          0.00009   0.00009   0.00000   0.00009  -0.00659
  22        3PX         0.00001  -0.00004  -0.00000   0.00001   0.00029
  23        3PY        -0.00004   0.00001   0.00000   0.00001   0.00029
  24        3PZ         0.00001   0.00001  -0.00000  -0.00004  -0.00000
  25 4   H  1S          0.00129   0.00129   0.00000   0.00129  -0.00202
  26        2S          0.00009   0.00009   0.00000   0.00009  -0.00659
  27        3PX         0.00001  -0.00004  -0.00000   0.00001  -0.00000
  28        3PY        -0.00004   0.00001   0.00000   0.00001   0.00029
  29        3PZ         0.00001   0.00001   0.00000  -0.00004   0.00029
  30 5   H  1S          0.00129   0.00129  -0.00000   0.00129  -0.00202
  31        2S          0.00009   0.00009   0.00000   0.00009  -0.00659
  32        3PX         0.00001  -0.00004  -0.00000   0.00001   0.00029
  33        3PY        -0.00004   0.00001   0.00000   0.00001  -0.00000
  34        3PZ         0.00001   0.00001  -0.00000  -0.00004   0.00029
                          16        17        18        19        20
  16        2S          0.05793
  17        3PX         0.00000   0.00060
  18        3PY         0.00000   0.00000   0.00060
  19        3PZ         0.00000  -0.00000   0.00000   0.00060
  20 3   H  1S         -0.00659   0.00029   0.00029  -0.00000   0.35878
  21        2S         -0.00769   0.00018   0.00018  -0.00000   0.09639
  22        3PX         0.00018   0.00001   0.00003   0.00000   0.00000
  23        3PY         0.00018   0.00003   0.00001  -0.00000   0.00000
  24        3PZ        -0.00000  -0.00000   0.00000   0.00000   0.00000
  25 4   H  1S         -0.00659   0.00000   0.00029   0.00029  -0.00202
  26        2S         -0.00769   0.00000   0.00018   0.00018  -0.00659
  27        3PX        -0.00000   0.00000   0.00000   0.00000   0.00029
  28        3PY         0.00018  -0.00000   0.00001   0.00003   0.00000
  29        3PZ         0.00018  -0.00000   0.00003   0.00001   0.00029
  30 5   H  1S         -0.00659   0.00029  -0.00000   0.00029  -0.00202
  31        2S         -0.00769   0.00018  -0.00000   0.00018  -0.00659
  32        3PX         0.00018   0.00001   0.00000   0.00003  -0.00000
  33        3PY        -0.00000  -0.00000   0.00000  -0.00000   0.00029
  34        3PZ         0.00018   0.00003   0.00000   0.00001   0.00029
                          21        22        23        24        25
  21        2S          0.05793
  22        3PX         0.00000   0.00060
  23        3PY         0.00000   0.00000   0.00060
  24        3PZ         0.00000   0.00000  -0.00000   0.00060
  25 4   H  1S         -0.00659   0.00029   0.00000   0.00029   0.35878
  26        2S         -0.00769   0.00018   0.00000   0.00018   0.09639
  27        3PX         0.00018   0.00001  -0.00000   0.00003   0.00000
  28        3PY         0.00000   0.00000   0.00000   0.00000   0.00000
  29        3PZ         0.00018   0.00003  -0.00000   0.00001   0.00000
  30 5   H  1S         -0.00659   0.00000   0.00029   0.00029  -0.00202
  31        2S         -0.00769   0.00000   0.00018   0.00018  -0.00659
  32        3PX        -0.00000   0.00000   0.00000   0.00000   0.00029
  33        3PY         0.00018  -0.00000   0.00001   0.00003   0.00029
  34        3PZ         0.00018  -0.00000   0.00003   0.00001  -0.00000
                          26        27        28        29        30
  26        2S          0.05793
  27        3PX         0.00000   0.00060
  28        3PY         0.00000  -0.00000   0.00060
  29        3PZ         0.00000  -0.00000  -0.00000   0.00060
  30 5   H  1S         -0.00659   0.00029   0.00029  -0.00000   0.35878
  31        2S         -0.00769   0.00018   0.00018  -0.00000   0.09639
  32        3PX         0.00018   0.00001   0.00003   0.00000   0.00000
  33        3PY         0.00018   0.00003   0.00001  -0.00000   0.00000
  34        3PZ        -0.00000  -0.00000   0.00000   0.00000   0.00000
                          31        32        33        34
  31        2S          0.05793
  32        3PX         0.00000   0.00060
  33        3PY         0.00000   0.00000   0.00060
  34        3PZ         0.00000   0.00000   0.00000   0.00060
     Gross orbital populations:
                           1
   1 1   C  1S          1.98419
   2        2S          0.88918
   3        3S          0.22524
   4        4PX         0.70544
   5        4PY         0.70544
   6        4PZ         0.70544
   7        5PX         0.32071
   8        5PY         0.32071
   9        5PZ         0.32071
  10        6D 0        0.00000
  11        6D+1        0.00598
  12        6D-1        0.00598
  13        6D+2        0.00000
  14        6D-2        0.00598
  15 2   H  1S          0.72617
  16        2S          0.20238
  17        3PX         0.00757
  18        3PY         0.00757
  19        3PZ         0.00757
  20 3   H  1S          0.72617
  21        2S          0.20238
  22        3PX         0.00757
  23        3PY         0.00757
  24        3PZ         0.00757
  25 4   H  1S          0.72617
  26        2S          0.20238
  27        3PX         0.00757
  28        3PY         0.00757
  29        3PZ         0.00757
  30 5   H  1S          0.72617
  31        2S          0.20238
  32        3PX         0.00757
  33        3PY         0.00757
  34        3PZ         0.00757
          Condensed to atoms (all electrons):
               1          2          3          4          5
     1  C    4.583851   0.402787   0.402787   0.402787   0.402787
     2  H    0.402787   0.611276  -0.020938  -0.020938  -0.020938
     3  H    0.402787  -0.020938   0.611276  -0.020938  -0.020938
     4  H    0.402787  -0.020938  -0.020938   0.611276  -0.020938
     5  H    0.402787  -0.020938  -0.020938  -0.020938   0.611276
 Mulliken charges:
               1
     1  C   -0.195000
     2  H    0.048750
     3  H    0.048750
     4  H    0.048750
     5  H    0.048750
 Sum of Mulliken charges =  -0.00000
 Mulliken charges with hydrogens summed into heavy atoms:
               1
     1  C   -0.000000
 Electronic spatial extent (au):  <R**2>=             36.0756
 Charge=             -0.0000 electrons
 Dipole moment (field-independent basis, Debye):
    X=              0.0000    Y=             -0.0000    Z=             -0.0000  Tot=              0.0000
 Quadrupole moment (field-independent basis, Debye-Ang):
   XX=             -8.3280   YY=             -8.3280   ZZ=             -8.3280
   XY=              0.0000   XZ=              0.0000   YZ=              0.0000
 Traceless Quadrupole moment (field-independent basis, Debye-Ang):
   XX=              0.0000   YY=              0.0000   ZZ=              0.0000
   XY=              0.0000   XZ=              0.0000   YZ=              0.0000
 Octapole moment (field-independent basis, Debye-Ang**2):
  XXX=              0.0000  YYY=              0.0000  ZZZ=              0.0000  XYY=              0.0000
  XXY=              0.0000  XXZ=              0.0000  XZZ=              0.0000  YZZ=              0.0000
  YYZ=              0.0000  XYZ=              0.6389
 Hexadecapole moment (field-independent basis, Debye-Ang**3):
 XXXX=            -16.3812 YYYY=            -16.3812 ZZZZ=            -16.3812 XXXY=              0.0000
 XXXZ=              0.0000 YYYX=              0.0000 YYYZ=             -0.0000 ZZZX=              0.0000
 ZZZY=             -0.0000 XXYY=             -4.9896 XXZZ=             -4.9896 YYZZ=             -4.9896
 XXYZ=              0.0000 YYXZ=              0.0000 ZZXY=              0.0000
 N-N= 1.323064505964D+01 E-N=-1.191829117201D+02  KE= 3.978952101975D+01
 Symmetry A    KE= 3.414099874391D+01
 Symmetry B1   KE= 1.882840758611D+00
 Symmetry B2   KE= 1.882840758611D+00
 Symmetry B3   KE= 1.882840758611D+00
 Orbital energies and kinetic energies (alpha):
                                 1                 2
   1         (A1)--O          -9.903891         15.728785
   2         (A1)--O          -0.616026          1.341714
   3         (T2)--O          -0.344391          0.941420
   4         (T2)--O          -0.344391          0.941420
   5         (T2)--O          -0.344391          0.941420
   6         (A1)--V           0.056525          0.753877
   7         (T2)--V           0.119676          0.771054
   8         (T2)--V           0.119676          0.771054
   9         (T2)--V           0.119676          0.771054
  10         (T2)--V           0.386517          1.134230
  11         (T2)--V           0.386517          1.134230
  12         (T2)--V           0.386517          1.134230
  13         (A1)--V           0.599579          2.674567
  14         (T2)--V           0.629698          2.183776
  15         (T2)--V           0.629698          2.183776
  16         (T2)--V           0.629698          2.183776
  17         (A1)--V           0.725625          1.608985
  18         (E)--V            1.035146          1.893026
  19         (E)--V            1.035146          1.893026
  20         (T1)--V           1.457435          2.173040
  21         (T1)--V           1.457435          2.173040
  22         (T1)--V           1.457435          2.173040
  23         (T2)--V           1.680225          2.575786
  24         (T2)--V           1.680225          2.575786
  25         (T2)--V           1.680225          2.575786
  26         (T2)--V           2.041345          3.092169
  27         (T2)--V           2.041345          3.092169
  28         (T2)--V           2.041345          3.092169
  29         (E)--V            2.423544          3.531505
  30         (E)--V            2.423544          3.531505
  31         (A1)--V           2.481614          4.586068
  32         (T2)--V           2.803495          4.577165
  33         (T2)--V           2.803495          4.577165
  34         (T2)--V           2.803495          4.577165
 Total kinetic energy from orbitals= 3.978952101975D+01
 No NMR shielding tensors so no spin-rotation constants.
 Leave Link  601 at Fri Jan 12 19:20:33 2018, MaxMem=    33554432 cpu:         0.2
 (Enter /home/chemsoft/gaussian/g09e01/g09/l9999.exe)

 This type of calculation cannot be archived.

 Writing a WFNX file to "methane.df-bp86svp.wfx"


 ... IT CAN BE VERY DIFFICULT, IN THESE COMPLEX TIMES,
 TO UNDERSTAND JUST HOW SCIENTISTS DO WHAT THEY DO.

                     DON MOSER IN THE FEBRUARY 1979 SMITHSONIAN
 Job cpu time:       0 days  0 hours  0 minutes  1.8 seconds.
 File lengths (MBytes):  RWF=      5 Int=      0 D2E=      0 Chk=      1 Scr=      1
 Normal termination of Gaussian 09 at Fri Jan 12 19:20:33 2018.
