 Entering Gaussian System, Link 0=g09
 Input=methane.pbe0gen.gjf
 Output=methane.pbe0gen.log
 Initial command:
 /home/chemsoft/gaussian/g09e01/g09/l1.exe "/scr/martin/g09job1111/Gau-17057.inp" -scrdir="/scr/martin/g09job1111/"
 Entering Link 1 = /home/chemsoft/gaussian/g09e01/g09/l1.exe PID=     17058.
  
 Copyright (c) 1988,1990,1992,1993,1995,1998,2003,2009,2015,
            Gaussian, Inc.  All Rights Reserved.
  
 This is part of the Gaussian(R) 09 program.  It is based on
 the Gaussian(R) 03 system (copyright 2003, Gaussian, Inc.),
 the Gaussian(R) 98 system (copyright 1998, Gaussian, Inc.),
 the Gaussian(R) 94 system (copyright 1995, Gaussian, Inc.),
 the Gaussian 92(TM) system (copyright 1992, Gaussian, Inc.),
 the Gaussian 90(TM) system (copyright 1990, Gaussian, Inc.),
 the Gaussian 88(TM) system (copyright 1988, Gaussian, Inc.),
 the Gaussian 86(TM) system (copyright 1986, Carnegie Mellon
 University), and the Gaussian 82(TM) system (copyright 1983,
 Carnegie Mellon University). Gaussian is a federally registered
 trademark of Gaussian, Inc.
  
 This software contains proprietary and confidential information,
 including trade secrets, belonging to Gaussian, Inc.
  
 This software is provided under written license and may be
 used, copied, transmitted, or stored only in accord with that
 written license.
  
 The following legend is applicable only to US Government
 contracts under FAR:
  
                    RESTRICTED RIGHTS LEGEND
  
 Use, reproduction and disclosure by the US Government is
 subject to restrictions as set forth in subparagraphs (a)
 and (c) of the Commercial Computer Software - Restricted
 Rights clause in FAR 52.227-19.
  
 Gaussian, Inc.
 340 Quinnipiac St., Bldg. 40, Wallingford CT 06492
  
  
 ---------------------------------------------------------------
 Warning -- This program may not be used in any manner that
 competes with the business of Gaussian, Inc. or will provide
 assistance to any competitor of Gaussian, Inc.  The licensee
 of this program is prohibited from giving any competitor of
 Gaussian, Inc. access to this program.  By using this program,
 the user acknowledges that Gaussian, Inc. is engaged in the
 business of creating and licensing software in the field of
 computational chemistry and represents and warrants to the
 licensee that it is not a competitor of Gaussian, Inc. and that
 it will not use this program in any manner prohibited above.
 ---------------------------------------------------------------
  

 Cite this work as:
 Gaussian 09, Revision E.01,
 M. J. Frisch, G. W. Trucks, H. B. Schlegel, G. E. Scuseria, 
 M. A. Robb, J. R. Cheeseman, G. Scalmani, V. Barone, B. Mennucci, 
 G. A. Petersson, H. Nakatsuji, M. Caricato, X. Li, H. P. Hratchian, 
 A. F. Izmaylov, J. Bloino, G. Zheng, J. L. Sonnenberg, M. Hada, 
 M. Ehara, K. Toyota, R. Fukuda, J. Hasegawa, M. Ishida, T. Nakajima, 
 Y. Honda, O. Kitao, H. Nakai, T. Vreven, J. A. Montgomery, Jr., 
 J. E. Peralta, F. Ogliaro, M. Bearpark, J. J. Heyd, E. Brothers, 
 K. N. Kudin, V. N. Staroverov, T. Keith, R. Kobayashi, J. Normand, 
 K. Raghavachari, A. Rendell, J. C. Burant, S. S. Iyengar, J. Tomasi, 
 M. Cossi, N. Rega, J. M. Millam, M. Klene, J. E. Knox, J. B. Cross, 
 V. Bakken, C. Adamo, J. Jaramillo, R. Gomperts, R. E. Stratmann, 
 O. Yazyev, A. J. Austin, R. Cammi, C. Pomelli, J. W. Ochterski, 
 R. L. Martin, K. Morokuma, V. G. Zakrzewski, G. A. Voth, 
 P. Salvador, J. J. Dannenberg, S. Dapprich, A. D. Daniels, 
 O. Farkas, J. B. Foresman, J. V. Ortiz, J. Cioslowski, 
 and D. J. Fox, Gaussian, Inc., Wallingford CT, 2013.
 
 ******************************************
 Gaussian 09:  ES64L-G09RevE.01 30-Nov-2015
                15-Feb-2018 
 ******************************************
 %chk=methane.pbe0gen.chk
 %nproc=2
 Will use up to    2 processors via shared memory.
 %mem=2000MB
 ----------------------------------------------------------------------
 #P PBE1PBE/gen opt(MaxCycle=100) scf(xqc,MaxConventionalCycle=500) int
 (ultrafinegrid) gfinput gfoldprint iop(6/7=3) symmetry=loose
 ----------------------------------------------------------------------
 1/6=100,14=-1,18=20,19=15,26=4,38=1/1,3;
 2/9=110,12=2,17=4,18=3,40=1/2;
 3/5=7,11=2,16=1,24=11,25=1,30=1,71=1,74=-13,75=-5/1,2,3;
 4//1;
 5/5=2,8=3,13=1,38=5,85=500/2,8;
 6/7=3,8=2,9=2,10=2,28=1/1;
 7//1,2,3,16;
 1/6=100,14=-1,18=20,19=15,26=4/3(2);
 2/9=110/2;
 99//99;
 2/9=110/2;
 3/5=7,6=1,11=2,16=1,25=1,30=1,71=1,74=-13,75=-5,82=7/1,2,3;
 4/5=5,16=3,69=1/1;
 5/5=2,8=3,13=1,38=5,85=500/2,8;
 7//1,2,3,16;
 1/6=100,14=-1,18=20,19=15,26=4/3(-5);
 2/9=110/2;
 6/7=3,8=2,9=2,10=2,19=2,28=1/1;
 99/9=1/99;
 Leave Link    1 at Thu Feb 15 15:26:41 2018, MaxMem=   262144000 cpu:         0.2
 (Enter /home/chemsoft/gaussian/g09e01/g09/l101.exe)
 -----------------------------
 Methane PBE0/C:6-31G*;H:3-21G
 -----------------------------
 Symbolic Z-matrix:
 Charge =  0 Multiplicity = 1
 C                     0.        0.        0. 
 H                     0.6304    0.6304    0.6304 
 H                     0.6304   -0.6304   -0.6304 
 H                    -0.6304    0.6304   -0.6304 
 H                    -0.6304   -0.6304    0.6304 
 
 NAtoms=      5 NQM=        5 NQMF=       0 NMMI=      0 NMMIF=      0
                NMic=       0 NMicF=      0.
                    Isotopes and Nuclear Properties:
 (Nuclear quadrupole moments (NQMom) in fm**2, nuclear magnetic moments (NMagM)
  in nuclear magnetons)

  Atom         1           2           3           4           5
 IAtWgt=          12           1           1           1           1
 AtmWgt=  12.0000000   1.0078250   1.0078250   1.0078250   1.0078250
 NucSpn=           0           1           1           1           1
 AtZEff=   0.0000000   0.0000000   0.0000000   0.0000000   0.0000000
 NQMom=    0.0000000   0.0000000   0.0000000   0.0000000   0.0000000
 NMagM=    0.0000000   2.7928460   2.7928460   2.7928460   2.7928460
 AtZNuc=   6.0000000   1.0000000   1.0000000   1.0000000   1.0000000
 Leave Link  101 at Thu Feb 15 15:26:41 2018, MaxMem=   262144000 cpu:         0.3
 (Enter /home/chemsoft/gaussian/g09e01/g09/l103.exe)

 GradGradGradGradGradGradGradGradGradGradGradGradGradGradGradGradGradGrad
 Berny optimization.
 Initialization pass.
                           ----------------------------
                           !    Initial Parameters    !
                           ! (Angstroms and Degrees)  !
 --------------------------                            --------------------------
 ! Name  Definition              Value          Derivative Info.                !
 --------------------------------------------------------------------------------
 ! R1    R(1,2)                  1.0919         estimate D2E/DX2                !
 ! R2    R(1,3)                  1.0919         estimate D2E/DX2                !
 ! R3    R(1,4)                  1.0919         estimate D2E/DX2                !
 ! R4    R(1,5)                  1.0919         estimate D2E/DX2                !
 ! A1    A(2,1,3)              109.4712         estimate D2E/DX2                !
 ! A2    A(2,1,4)              109.4712         estimate D2E/DX2                !
 ! A3    A(2,1,5)              109.4712         estimate D2E/DX2                !
 ! A4    A(3,1,4)              109.4712         estimate D2E/DX2                !
 ! A5    A(3,1,5)              109.4712         estimate D2E/DX2                !
 ! A6    A(4,1,5)              109.4712         estimate D2E/DX2                !
 ! D1    D(2,1,4,3)            120.0            estimate D2E/DX2                !
 ! D2    D(2,1,5,3)           -120.0            estimate D2E/DX2                !
 ! D3    D(2,1,5,4)            120.0            estimate D2E/DX2                !
 ! D4    D(3,1,5,4)           -120.0            estimate D2E/DX2                !
 --------------------------------------------------------------------------------
 Trust Radius=3.00D-01 FncErr=1.00D-07 GrdErr=1.00D-06
 Number of steps in this run=    100 maximum allowed number of steps=    100.
 GradGradGradGradGradGradGradGradGradGradGradGradGradGradGradGradGradGrad

 Leave Link  103 at Thu Feb 15 15:26:41 2018, MaxMem=   262144000 cpu:         0.0
 (Enter /home/chemsoft/gaussian/g09e01/g09/l202.exe)
                          Input orientation:                          
 ---------------------------------------------------------------------
 Center     Atomic      Atomic             Coordinates (Angstroms)
 Number     Number       Type             X           Y           Z
 ---------------------------------------------------------------------
      1          6           0        0.000000    0.000000    0.000000
      2          1           0        0.630397    0.630397    0.630397
      3          1           0        0.630397   -0.630397   -0.630397
      4          1           0       -0.630397    0.630397   -0.630397
      5          1           0       -0.630397   -0.630397    0.630397
 ---------------------------------------------------------------------
                    Distance matrix (angstroms):
                    1          2          3          4          5
     1  C    0.000000
     2  H    1.091880   0.000000
     3  H    1.091880   1.783032   0.000000
     4  H    1.091880   1.783032   1.783032   0.000000
     5  H    1.091880   1.783032   1.783032   1.783032   0.000000
 Stoichiometry    CH4
 Framework group  TD[O(C),4C3(H)]
 Deg. of freedom     1
 Full point group                 TD      NOp  24
 Largest Abelian subgroup         D2      NOp   4
 Largest concise Abelian subgroup D2      NOp   4
                         Standard orientation:                         
 ---------------------------------------------------------------------
 Center     Atomic      Atomic             Coordinates (Angstroms)
 Number     Number       Type             X           Y           Z
 ---------------------------------------------------------------------
      1          6           0        0.000000    0.000000    0.000000
      2          1           0        0.630397    0.630397    0.630397
      3          1           0       -0.630397   -0.630397    0.630397
      4          1           0        0.630397   -0.630397   -0.630397
      5          1           0       -0.630397    0.630397   -0.630397
 ---------------------------------------------------------------------
 Rotational constants (GHZ):    157.7298137    157.7298137    157.7298137
 Leave Link  202 at Thu Feb 15 15:26:41 2018, MaxMem=   262144000 cpu:         0.0
 (Enter /home/chemsoft/gaussian/g09e01/g09/l301.exe)
 General basis read from cards:  (5D, 7F)
 Centers:       1
 6-31G*
 ****
 Centers:       2      3      4      5
 3-21G
 ****
 Ernie: Thresh=  0.10000D-02 Tol=  0.10000D-05 Strict=F.
 AO basis set in the form of general basis input (Overlap normalization):
      1 0
 S   6 1.00       0.000000000000
      0.3047524880D+04  0.1834737132D-02
      0.4573695180D+03  0.1403732281D-01
      0.1039486850D+03  0.6884262226D-01
      0.2921015530D+02  0.2321844432D+00
      0.9286662960D+01  0.4679413484D+00
      0.3163926960D+01  0.3623119853D+00
 SP   3 1.00       0.000000000000
      0.7868272350D+01 -0.1193324198D+00  0.6899906659D-01
      0.1881288540D+01 -0.1608541517D+00  0.3164239610D+00
      0.5442492580D+00  0.1143456438D+01  0.7443082909D+00
 SP   1 1.00       0.000000000000
      0.1687144782D+00  0.1000000000D+01  0.1000000000D+01
 D   1 1.00       0.000000000000
      0.8000000000D+00  0.1000000000D+01
 ****
      2 0
 S   2 1.00       0.000000000000
      0.5447178000D+01  0.1562849787D+00
      0.8245472400D+00  0.9046908767D+00
 S   1 1.00       0.000000000000
      0.1831915800D+00  0.1000000000D+01
 ****
      3 0
 S   2 1.00       0.000000000000
      0.5447178000D+01  0.1562849787D+00
      0.8245472400D+00  0.9046908767D+00
 S   1 1.00       0.000000000000
      0.1831915800D+00  0.1000000000D+01
 ****
      4 0
 S   2 1.00       0.000000000000
      0.5447178000D+01  0.1562849787D+00
      0.8245472400D+00  0.9046908767D+00
 S   1 1.00       0.000000000000
      0.1831915800D+00  0.1000000000D+01
 ****
      5 0
 S   2 1.00       0.000000000000
      0.5447178000D+01  0.1562849787D+00
      0.8245472400D+00  0.9046908767D+00
 S   1 1.00       0.000000000000
      0.1831915800D+00  0.1000000000D+01
 ****

 ***********************************************************************************************************************************
 *             ATOMIC CENTER             *        ATOMIC ORBITAL       *                     GAUSSIAN FUNCTIONS                    *
 ***********************************************************************************************************************************
 *                                       * FUNCTION    SHELL    SCALE  *                                                           *
 *    ATOM   X-COORD  Y-COORD  Z-COORD   *  NUMBER     TYPE     FACTOR *  EXPONENT    S-COEF      P-COEF      D-COEF      F-COEF   *
 ***********************************************************************************************************************************
 *     C      0.00000  0.00000  0.00000                                                                                            *
+                                                1   S           1.00                                                               
+                                                                      0.304752D+040.536345D+000.000000D+000.000000D+000.000000D+00 
 *                                                                     0.457370D+030.989452D+000.000000D+000.000000D+000.000000D+00*
 *                                                                     0.103949D+030.159728D+010.000000D+000.000000D+000.000000D+00*
 *                                                                     0.292102D+020.207919D+010.000000D+000.000000D+000.000000D+00*
 *                                                                     0.928666D+010.177417D+010.000000D+000.000000D+000.000000D+00*
 *                                                                     0.316393D+010.612580D+000.000000D+000.000000D+000.000000D+00*
 *                                           2-  5   SP          1.00                                                              *
+                                                                      0.786827D+01-.399556D+000.129608D+010.000000D+000.000000D+00 
 *                                                                     0.188129D+01-.184155D+000.993754D+000.000000D+000.000000D+00*
 *                                                                     0.544249D+000.516390D+000.495953D+000.000000D+000.000000D+00*
 *                                           6-  9   SP          1.00                                                              *
+                                                                      0.168714D+000.187618D+000.154128D+000.000000D+000.000000D+00 
 *                                          10- 14   D           1.00                                                              *
+                                                                      0.800000D+000.000000D+000.000000D+000.111382D+010.000000D+00 
 *---------------------------------------------------------------------------------------------------------------------------------*
 *     H      1.19128  1.19128  1.19128                                                                                            *
+                                               15   S           1.00                                                               
+                                                                      0.544718D+010.397151D+000.000000D+000.000000D+000.000000D+00 
 *                                                                     0.824547D+000.557920D+000.000000D+000.000000D+000.000000D+00*
 *                                              16   S           1.00                                                              *
+                                                                      0.183192D+000.199567D+000.000000D+000.000000D+000.000000D+00 
 *---------------------------------------------------------------------------------------------------------------------------------*
 *     H     -1.19128 -1.19128  1.19128                                                                                            *
+                                               17   S           1.00                                                               
+                                                                      0.544718D+010.397151D+000.000000D+000.000000D+000.000000D+00 
 *                                                                     0.824547D+000.557920D+000.000000D+000.000000D+000.000000D+00*
 *                                              18   S           1.00                                                              *
+                                                                      0.183192D+000.199567D+000.000000D+000.000000D+000.000000D+00 
 *---------------------------------------------------------------------------------------------------------------------------------*
 *     H      1.19128 -1.19128 -1.19128                                                                                            *
+                                               19   S           1.00                                                               
+                                                                      0.544718D+010.397151D+000.000000D+000.000000D+000.000000D+00 
 *                                                                     0.824547D+000.557920D+000.000000D+000.000000D+000.000000D+00*
 *                                              20   S           1.00                                                              *
+                                                                      0.183192D+000.199567D+000.000000D+000.000000D+000.000000D+00 
 *---------------------------------------------------------------------------------------------------------------------------------*
 *     H     -1.19128  1.19128 -1.19128                                                                                            *
+                                               21   S           1.00                                                               
+                                                                      0.544718D+010.397151D+000.000000D+000.000000D+000.000000D+00 
 *                                                                     0.824547D+000.557920D+000.000000D+000.000000D+000.000000D+00*
 *                                              22   S           1.00                                                              *
+                                                                      0.183192D+000.199567D+000.000000D+000.000000D+000.000000D+00 
 ***********************************************************************************************************************************
 There are     8 symmetry adapted cartesian basis functions of A   symmetry.
 There are     5 symmetry adapted cartesian basis functions of B1  symmetry.
 There are     5 symmetry adapted cartesian basis functions of B2  symmetry.
 There are     5 symmetry adapted cartesian basis functions of B3  symmetry.
 There are     7 symmetry adapted basis functions of A   symmetry.
 There are     5 symmetry adapted basis functions of B1  symmetry.
 There are     5 symmetry adapted basis functions of B2  symmetry.
 There are     5 symmetry adapted basis functions of B3  symmetry.
    22 basis functions,    40 primitive gaussians,    23 cartesian basis functions
     5 alpha electrons        5 beta electrons
       nuclear repulsion energy        13.4122606386 Hartrees.
 IExCor= 1009 DFT=T Ex+Corr=PBE1PBE ExCW=0 ScaHFX=  0.250000
 ScaDFX=  0.750000  0.750000  1.000000  1.000000 ScalE2=  1.000000  1.000000
 IRadAn=      5 IRanWt=     -1 IRanGd=            0 ICorTp=0 IEmpDi=  4
 NAtoms=    5 NActive=    5 NUniq=    2 SFac= 4.00D+00 NAtFMM=   60 NAOKFM=F Big=F
 Integral buffers will be    131072 words long.
 Raffenetti 2 integral format.
 Two-electron integral symmetry is turned on.
 Leave Link  301 at Thu Feb 15 15:26:41 2018, MaxMem=   262144000 cpu:         0.2
 (Enter /home/chemsoft/gaussian/g09e01/g09/l302.exe)
 NPDir=0 NMtPBC=     1 NCelOv=     1 NCel=       1 NClECP=     1 NCelD=      1
         NCelK=      1 NCelE2=     1 NClLst=     1 CellRange=     0.0.
 One-electron integrals computed using PRISM.
 One-electron integral symmetry used in STVInt
 NBasis=    22 RedAO= T EigKep=  2.25D-02  NBF=     7     5     5     5
 NBsUse=    22 1.00D-06 EigRej= -1.00D+00 NBFU=     7     5     5     5
 Precomputing XC quadrature grid using
 IXCGrd= 4 IRadAn=           5 IRanWt=          -1 IRanGd=           0 AccXCQ= 0.00D+00.
 Generated NRdTot=       0 NPtTot=           0 NUsed=           0 NTot=          32
 NSgBfM=    23    23    23    23    23 MxSgAt=     5 MxSgA2=     5.
 Leave Link  302 at Thu Feb 15 15:26:41 2018, MaxMem=   262144000 cpu:         0.4
 (Enter /home/chemsoft/gaussian/g09e01/g09/l303.exe)
 DipDrv:  MaxL=1.
 Leave Link  303 at Thu Feb 15 15:26:41 2018, MaxMem=   262144000 cpu:         0.1
 (Enter /home/chemsoft/gaussian/g09e01/g09/l401.exe)
 ExpMin= 1.69D-01 ExpMax= 3.05D+03 ExpMxC= 4.57D+02 IAcc=3 IRadAn=         5 AccDes= 0.00D+00
 Harris functional with IExCor= 1009 and IRadAn=       5 diagonalized for initial guess.
 HarFok:  IExCor= 1009 AccDes= 0.00D+00 IRadAn=         5 IDoV= 1 UseB2=F ITyADJ=14
 ICtDFT=  3500011 ScaDFX=  1.000000  1.000000  1.000000  1.000000
 FoFCou: FMM=F IPFlag=           0 FMFlag=      100000 FMFlg1=           0
         NFxFlg=           0 DoJE=T BraDBF=F KetDBF=T FulRan=T
         wScrn=  0.000000 ICntrl=     500 IOpCl=  0 I1Cent=   200000004 NGrid=           0
         NMat0=    1 NMatS0=      1 NMatT0=    0 NMatD0=    1 NMtDS0=    0 NMtDT0=    0
 Petite list used in FoFCou.
 Harris En= -40.5066963206589    
 JPrj=0 DoOrth=F DoCkMO=F.
 Initial guess orbital symmetries:
       Occupied  (A1) (A1) (T2) (T2) (T2)
       Virtual   (A1) (T2) (T2) (T2) (T2) (T2) (T2) (T2) (T2) (T2)
                 (A1) (A1) (E) (E) (T2) (T2) (T2)
 The electronic state of the initial guess is 1-A1.
 Leave Link  401 at Thu Feb 15 15:26:42 2018, MaxMem=   262144000 cpu:         0.5
 (Enter /home/chemsoft/gaussian/g09e01/g09/l502.exe)
 Closed shell SCF:
 Using DIIS extrapolation, IDIIS=  1040.
 Integral symmetry usage will be decided dynamically.
 Keep R1 ints in memory in symmetry-blocked form, NReq=1151528.
 IVT=      256287 IEndB=      256287 NGot=   262144000 MDV=   261878439
 LenX=   261878439 LenY=   261877469
 Requested convergence on RMS density matrix=1.00D-08 within 500 cycles.
 Requested convergence on MAX density matrix=1.00D-06.
 Requested convergence on             energy=1.00D-06.
 No special actions if energy rises.
 FoFCou: FMM=F IPFlag=           0 FMFlag=           0 FMFlg1=           0
         NFxFlg=           0 DoJE=F BraDBF=F KetDBF=F FulRan=T
         wScrn=  0.000000 ICntrl=     600 IOpCl=  0 I1Cent=           0 NGrid=           0
         NMat0=    1 NMatS0=    253 NMatT0=    0 NMatD0=    1 NMtDS0=    0 NMtDT0=    0
 Petite list used in FoFCou.
 Integral accuracy reduced to 1.0D-05 until final iterations.

 Cycle   1  Pass 0  IDiag  1:
 E= -40.3623562166834    
 DIIS: error= 6.96D-02 at cycle   1 NSaved=   1.
 NSaved= 1 IEnMin= 1 EnMin= -40.3623562166834     IErMin= 1 ErrMin= 6.96D-02
 ErrMax= 6.96D-02  0.00D+00 EMaxC= 1.00D-01 BMatC= 7.77D-02 BMatP= 7.77D-02
 IDIUse=3 WtCom= 3.04D-01 WtEn= 6.96D-01
 Coeff-Com:  0.100D+01
 Coeff-En:   0.100D+01
 Coeff:      0.100D+01
 Gap=     0.497 Goal=   None    Shift=    0.000
 GapD=    0.497 DampG=2.000 DampE=0.500 DampFc=1.0000 IDamp=-1.
 RMSDP=2.04D-02 MaxDP=1.48D-01              OVMax= 1.72D-01

 Cycle   2  Pass 0  IDiag  1:
 E= -40.3612547207652     Delta-E=        0.001101495918 Rises=F Damp=F
 DIIS: error= 6.56D-02 at cycle   2 NSaved=   2.
 NSaved= 2 IEnMin= 1 EnMin= -40.3623562166834     IErMin= 2 ErrMin= 6.56D-02
 ErrMax= 6.56D-02  0.00D+00 EMaxC= 1.00D-01 BMatC= 7.86D-02 BMatP= 7.77D-02
 IDIUse=3 WtCom= 3.44D-01 WtEn= 6.56D-01
 Coeff-Com:  0.501D+00 0.499D+00
 Coeff-En:   0.503D+00 0.497D+00
 Coeff:      0.503D+00 0.497D+00
 Gap=     0.558 Goal=   None    Shift=    0.000
 RMSDP=1.01D-02 MaxDP=6.78D-02 DE= 1.10D-03 OVMax= 8.54D-02

 Cycle   3  Pass 0  IDiag  1:
 E= -40.4471430092522     Delta-E=       -0.085888288487 Rises=F Damp=F
 DIIS: error= 3.03D-04 at cycle   3 NSaved=   3.
 NSaved= 3 IEnMin= 3 EnMin= -40.4471430092522     IErMin= 3 ErrMin= 3.03D-04
 ErrMax= 3.03D-04  0.00D+00 EMaxC= 1.00D-01 BMatC= 9.07D-07 BMatP= 7.77D-02
 IDIUse=3 WtCom= 9.97D-01 WtEn= 3.03D-03
 Coeff-Com: -0.696D-02-0.866D-02 0.102D+01
 Coeff-En:   0.000D+00 0.000D+00 0.100D+01
 Coeff:     -0.694D-02-0.864D-02 0.102D+01
 Gap=     0.564 Goal=   None    Shift=    0.000
 RMSDP=8.02D-05 MaxDP=8.74D-04 DE=-8.59D-02 OVMax= 4.38D-04

 Cycle   4  Pass 0  IDiag  1:
 E= -40.4471439286549     Delta-E=       -0.000000919403 Rises=F Damp=F
 DIIS: error= 6.59D-05 at cycle   4 NSaved=   4.
 NSaved= 4 IEnMin= 4 EnMin= -40.4471439286549     IErMin= 4 ErrMin= 6.59D-05
 ErrMax= 6.59D-05  0.00D+00 EMaxC= 1.00D-01 BMatC= 5.58D-08 BMatP= 9.07D-07
 IDIUse=1 WtCom= 1.00D+00 WtEn= 0.00D+00
 Coeff-Com:  0.797D-03 0.470D-04-0.800D-01 0.108D+01
 Coeff:      0.797D-03 0.470D-04-0.800D-01 0.108D+01
 Gap=     0.565 Goal=   None    Shift=    0.000
 RMSDP=8.20D-06 MaxDP=8.52D-05 DE=-9.19D-07 OVMax= 8.60D-05

 Initial convergence to 1.0D-05 achieved.  Increase integral accuracy.
 Cycle   5  Pass 1  IDiag  1:
 E= -40.4471381682314     Delta-E=        0.000005760424 Rises=F Damp=F
 DIIS: error= 2.09D-06 at cycle   1 NSaved=   1.
 NSaved= 1 IEnMin= 1 EnMin= -40.4471381682314     IErMin= 1 ErrMin= 2.09D-06
 ErrMax= 2.09D-06  0.00D+00 EMaxC= 1.00D-01 BMatC= 1.00D-10 BMatP= 1.00D-10
 IDIUse=1 WtCom= 1.00D+00 WtEn= 0.00D+00
 Coeff-Com:  0.100D+01
 Coeff:      0.100D+01
 Gap=     0.565 Goal=   None    Shift=    0.000
 RMSDP=8.20D-06 MaxDP=8.52D-05 DE= 5.76D-06 OVMax= 5.19D-06

 Cycle   6  Pass 1  IDiag  1:
 E= -40.4471381683948     Delta-E=       -0.000000000163 Rises=F Damp=F
 DIIS: error= 9.90D-07 at cycle   2 NSaved=   2.
 NSaved= 2 IEnMin= 2 EnMin= -40.4471381683948     IErMin= 2 ErrMin= 9.90D-07
 ErrMax= 9.90D-07  0.00D+00 EMaxC= 1.00D-01 BMatC= 1.72D-11 BMatP= 1.00D-10
 IDIUse=1 WtCom= 1.00D+00 WtEn= 0.00D+00
 Coeff-Com:  0.233D+00 0.767D+00
 Coeff:      0.233D+00 0.767D+00
 Gap=     0.565 Goal=   None    Shift=    0.000
 RMSDP=2.91D-07 MaxDP=1.72D-06 DE=-1.63D-10 OVMax= 2.25D-06

 Cycle   7  Pass 1  IDiag  1:
 E= -40.4471381684098     Delta-E=       -0.000000000015 Rises=F Damp=F
 DIIS: error= 5.99D-07 at cycle   3 NSaved=   3.
 NSaved= 3 IEnMin= 3 EnMin= -40.4471381684098     IErMin= 3 ErrMin= 5.99D-07
 ErrMax= 5.99D-07  0.00D+00 EMaxC= 1.00D-01 BMatC= 6.67D-12 BMatP= 1.72D-11
 IDIUse=1 WtCom= 1.00D+00 WtEn= 0.00D+00
 Coeff-Com: -0.612D-01 0.352D+00 0.709D+00
 Coeff:     -0.612D-01 0.352D+00 0.709D+00
 Gap=     0.565 Goal=   None    Shift=    0.000
 RMSDP=7.92D-08 MaxDP=6.61D-07 DE=-1.50D-11 OVMax= 6.51D-07

 Cycle   8  Pass 1  IDiag  1:
 E= -40.4471381684163     Delta-E=       -0.000000000006 Rises=F Damp=F
 DIIS: error= 8.07D-09 at cycle   4 NSaved=   4.
 NSaved= 4 IEnMin= 4 EnMin= -40.4471381684163     IErMin= 4 ErrMin= 8.07D-09
 ErrMax= 8.07D-09  0.00D+00 EMaxC= 1.00D-01 BMatC= 7.10D-16 BMatP= 6.67D-12
 IDIUse=1 WtCom= 1.00D+00 WtEn= 0.00D+00
 Coeff-Com: -0.854D-03 0.216D-02-0.406D-02 0.100D+01
 Coeff:     -0.854D-03 0.216D-02-0.406D-02 0.100D+01
 Gap=     0.565 Goal=   None    Shift=    0.000
 RMSDP=1.36D-09 MaxDP=1.02D-08 DE=-6.45D-12 OVMax= 1.23D-08

 SCF Done:  E(RPBE1PBE) =  -40.4471381684     A.U. after    8 cycles
            NFock=  8  Conv=0.14D-08     -V/T= 2.0063
 KE= 4.019566297481D+01 PE=-1.200044670674D+02 EE= 2.594940528551D+01
 Leave Link  502 at Thu Feb 15 15:26:43 2018, MaxMem=   262144000 cpu:         1.3
 (Enter /home/chemsoft/gaussian/g09e01/g09/l508.exe)
 QCSCF skips out because SCF is already converged.
 Leave Link  508 at Thu Feb 15 15:26:43 2018, MaxMem=   262144000 cpu:         0.0
 (Enter /home/chemsoft/gaussian/g09e01/g09/l601.exe)
 Copying SCF densities to generalized density rwf, IOpCl= 0 IROHF=0.

 **********************************************************************

            Population analysis using the SCF density.

 **********************************************************************

 Orbital symmetries:
       Occupied  (A1) (A1) (T2) (T2) (T2)
       Virtual   (A1) (T2) (T2) (T2) (T2) (T2) (T2) (T2) (T2) (T2)
                 (A1) (A1) (E) (E) (T2) (T2) (T2)
 The electronic state is 1-A1.
 Alpha  occ. eigenvalues --  -10.19979  -0.70755  -0.39644  -0.39644  -0.39644
 Alpha virt. eigenvalues --    0.16807   0.20432   0.20432   0.20432   0.55556
 Alpha virt. eigenvalues --    0.55556   0.55556   1.03176   1.03176   1.03176
 Alpha virt. eigenvalues --    1.04801   1.11904   1.66526   1.66526   2.27667
 Alpha virt. eigenvalues --    2.27667   2.27667
     Molecular Orbital Coefficients:
                           1         2         3         4         5
                        (A1)--O   (A1)--O   (T2)--O   (T2)--O   (T2)--O
     Eigenvalues --   -10.19979  -0.70755  -0.39644  -0.39644  -0.39644
   1 1   C  1S          0.99530  -0.19901   0.00000   0.00000   0.00000
   2        2S          0.03498   0.37578   0.00000   0.00000   0.00000
   3        2PX         0.00000   0.00000   0.00000   0.44456   0.00000
   4        2PY         0.00000   0.00000   0.00000   0.00000   0.44456
   5        2PZ         0.00000   0.00000   0.44456   0.00000   0.00000
   6        3S         -0.02878   0.39688   0.00000   0.00000   0.00000
   7        3PX         0.00000   0.00000   0.00000   0.23230   0.00000
   8        3PY         0.00000   0.00000   0.00000   0.00000   0.23230
   9        3PZ         0.00000   0.00000   0.23230   0.00000   0.00000
  10        4D 0       -0.00000  -0.00000   0.00000   0.00000   0.00000
  11        4D+1        0.00000   0.00000   0.00000   0.00000   0.02356
  12        4D-1        0.00000   0.00000   0.00000   0.02356   0.00000
  13        4D+2        0.00000   0.00000   0.00000   0.00000   0.00000
  14        4D-2        0.00000   0.00000   0.02356   0.00000   0.00000
  15 2   H  1S         -0.00090   0.12043   0.15056   0.15056   0.15056
  16        2S          0.00591   0.04356   0.15161   0.15161   0.15161
  17 3   H  1S         -0.00090   0.12043   0.15056  -0.15056  -0.15056
  18        2S          0.00591   0.04356   0.15161  -0.15161  -0.15161
  19 4   H  1S         -0.00090   0.12043  -0.15056   0.15056  -0.15056
  20        2S          0.00591   0.04356  -0.15161   0.15161  -0.15161
  21 5   H  1S         -0.00090   0.12043  -0.15056  -0.15056   0.15056
  22        2S          0.00591   0.04356  -0.15161  -0.15161   0.15161
                           6         7         8         9        10
                        (A1)--V   (T2)--V   (T2)--V   (T2)--V   (T2)--V
     Eigenvalues --     0.16807   0.20432   0.20432   0.20432   0.55556
   1 1   C  1S         -0.16596   0.00000   0.00000   0.00000   0.00000
   2        2S          0.23736   0.00000   0.00000   0.00000   0.00000
   3        2PX         0.00000   0.36334   0.00000   0.00000  -0.89279
   4        2PY         0.00000   0.00000   0.00000   0.36334   0.00000
   5        2PZ         0.00000   0.00000   0.36334   0.00000   0.00000
   6        3S          2.75427   0.00000   0.00000   0.00000   0.00000
   7        3PX         0.00000   1.44256   0.00000   0.00000   1.41599
   8        3PY         0.00000   0.00000   0.00000   1.44256   0.00000
   9        3PZ         0.00000   0.00000   1.44256   0.00000   0.00000
  10        4D 0        0.00000   0.00000   0.00000   0.00000   0.00000
  11        4D+1        0.00000   0.00000   0.00000  -0.02620   0.00000
  12        4D-1        0.00000  -0.02620   0.00000   0.00000  -0.08037
  13        4D+2        0.00000   0.00000   0.00000   0.00000   0.00000
  14        4D-2        0.00000   0.00000  -0.02620   0.00000   0.00000
  15 2   H  1S         -0.01413  -0.07495  -0.07495  -0.07495  -0.19705
  16        2S         -1.08981  -1.05688  -1.05688  -1.05688  -0.13992
  17 3   H  1S         -0.01413   0.07495  -0.07495   0.07495   0.19705
  18        2S         -1.08981   1.05688  -1.05688   1.05688   0.13992
  19 4   H  1S         -0.01413  -0.07495   0.07495   0.07495  -0.19705
  20        2S         -1.08981  -1.05688   1.05688   1.05688  -0.13992
  21 5   H  1S         -0.01413   0.07495   0.07495  -0.07495   0.19705
  22        2S         -1.08981   1.05688   1.05688  -1.05688   0.13992
                          11        12        13        14        15
                        (T2)--V   (T2)--V   (T2)--V   (T2)--V   (T2)--V
     Eigenvalues --     0.55556   0.55556   1.03176   1.03176   1.03176
   1 1   C  1S          0.00000   0.00000   0.00000   0.00000   0.00000
   2        2S          0.00000   0.00000   0.00000   0.00000   0.00000
   3        2PX         0.00000   0.00000  -0.69340   0.00000   0.00000
   4        2PY        -0.89279   0.00000   0.00000  -0.69340   0.00000
   5        2PZ         0.00000  -0.89279   0.00000   0.00000  -0.69340
   6        3S          0.00000   0.00000   0.00000   0.00000   0.00000
   7        3PX         0.00000   0.00000   1.15157   0.00000   0.00000
   8        3PY         1.41599   0.00000   0.00000   1.15157   0.00000
   9        3PZ         0.00000   1.41599   0.00000   0.00000   1.15157
  10        4D 0        0.00000   0.00000   0.00000   0.00000   0.00000
  11        4D+1       -0.08037   0.00000   0.00000   0.26266   0.00000
  12        4D-1        0.00000   0.00000   0.26266   0.00000   0.00000
  13        4D+2        0.00000   0.00000   0.00000   0.00000   0.00000
  14        4D-2        0.00000  -0.08037   0.00000   0.00000   0.26266
  15 2   H  1S         -0.19705  -0.19705   0.53507   0.53507   0.53507
  16        2S         -0.13992  -0.13992  -0.98518  -0.98518  -0.98518
  17 3   H  1S          0.19705  -0.19705  -0.53507  -0.53507   0.53507
  18        2S          0.13992  -0.13992   0.98518   0.98518  -0.98518
  19 4   H  1S          0.19705   0.19705   0.53507  -0.53507  -0.53507
  20        2S          0.13992   0.13992  -0.98518   0.98518   0.98518
  21 5   H  1S         -0.19705   0.19705  -0.53507   0.53507  -0.53507
  22        2S         -0.13992   0.13992   0.98518  -0.98518   0.98518
                          16        17        18        19        20
                        (A1)--V   (A1)--V   (E)--V    (E)--V    (T2)--V
     Eigenvalues --     1.04801   1.11904   1.66526   1.66526   2.27667
   1 1   C  1S         -0.11942   0.00492   0.00000   0.00000   0.00000
   2        2S         -0.72006  -2.26110   0.00000  -0.00000   0.00000
   3        2PX         0.00000   0.00000   0.00000   0.00000   0.00000
   4        2PY         0.00000   0.00000   0.00000   0.00000   0.00000
   5        2PZ         0.00000   0.00000   0.00000   0.00000   0.16355
   6        3S          2.19071   5.26511  -0.00000  -0.00000   0.00000
   7        3PX         0.00000   0.00000   0.00000   0.00000   0.00000
   8        3PY         0.00000   0.00000   0.00000   0.00000   0.00000
   9        3PZ         0.00000   0.00000   0.00000   0.00000   0.37014
  10        4D 0        0.00000   0.00000   0.99615  -0.08763   0.00000
  11        4D+1        0.00000   0.00000   0.00000   0.00000   0.00000
  12        4D-1        0.00000   0.00000   0.00000   0.00000   0.00000
  13        4D+2        0.00000  -0.00000   0.08763   0.99615   0.00000
  14        4D-2        0.00000   0.00000   0.00000   0.00000   1.12187
  15 2   H  1S         -0.63743   0.21229  -0.00000   0.00000  -0.47657
  16        2S         -0.18486  -1.32216   0.00000   0.00000   0.06614
  17 3   H  1S         -0.63743   0.21229  -0.00000   0.00000  -0.47657
  18        2S         -0.18486  -1.32216   0.00000   0.00000   0.06614
  19 4   H  1S         -0.63743   0.21229  -0.00000   0.00000   0.47657
  20        2S         -0.18486  -1.32216   0.00000   0.00000  -0.06614
  21 5   H  1S         -0.63743   0.21229  -0.00000   0.00000   0.47657
  22        2S         -0.18486  -1.32216   0.00000   0.00000  -0.06614
                          21        22
                        (T2)--V   (T2)--V
     Eigenvalues --     2.27667   2.27667
   1 1   C  1S          0.00000   0.00000
   2        2S          0.00000   0.00000
   3        2PX         0.16355   0.00000
   4        2PY         0.00000   0.16355
   5        2PZ         0.00000   0.00000
   6        3S          0.00000   0.00000
   7        3PX         0.37014   0.00000
   8        3PY         0.00000   0.37014
   9        3PZ         0.00000   0.00000
  10        4D 0        0.00000   0.00000
  11        4D+1        0.00000   1.12187
  12        4D-1        1.12187   0.00000
  13        4D+2        0.00000   0.00000
  14        4D-2        0.00000   0.00000
  15 2   H  1S         -0.47657  -0.47657
  16        2S          0.06614   0.06614
  17 3   H  1S          0.47657   0.47657
  18        2S         -0.06614  -0.06614
  19 4   H  1S         -0.47657   0.47657
  20        2S          0.06614  -0.06614
  21 5   H  1S          0.47657  -0.47657
  22        2S         -0.06614   0.06614
          Condensed to atoms (all electrons):
               1          2          3          4          5
     1  C    5.247931   0.380156   0.380156   0.380156   0.380156
     2  H    0.380156   0.497251  -0.023182  -0.023182  -0.023182
     3  H    0.380156  -0.023182   0.497251  -0.023182  -0.023182
     4  H    0.380156  -0.023182  -0.023182   0.497251  -0.023182
     5  H    0.380156  -0.023182  -0.023182  -0.023182   0.497251
 Mulliken charges:
               1
     1  C   -0.768554
     2  H    0.192138
     3  H    0.192138
     4  H    0.192138
     5  H    0.192138
 Sum of Mulliken charges =   0.00000
 Mulliken charges with hydrogens summed into heavy atoms:
               1
     1  C    0.000000
 Electronic spatial extent (au):  <R**2>=             35.2222
 Charge=             -0.0000 electrons
 Dipole moment (field-independent basis, Debye):
    X=             -0.0000    Y=              0.0000    Z=             -0.0000  Tot=              0.0000
 Quadrupole moment (field-independent basis, Debye-Ang):
   XX=             -8.1565   YY=             -8.1565   ZZ=             -8.1565
   XY=              0.0000   XZ=              0.0000   YZ=             -0.0000
 Traceless Quadrupole moment (field-independent basis, Debye-Ang):
   XX=             -0.0000   YY=             -0.0000   ZZ=              0.0000
   XY=              0.0000   XZ=              0.0000   YZ=             -0.0000
 Octapole moment (field-independent basis, Debye-Ang**2):
  XXX=             -0.0000  YYY=             -0.0000  ZZZ=             -0.0000  XYY=             -0.0000
  XXY=             -0.0000  XXZ=              0.0000  XZZ=             -0.0000  YZZ=              0.0000
  YYZ=             -0.0000  XYZ=              0.8139
 Hexadecapole moment (field-independent basis, Debye-Ang**3):
 XXXX=            -15.3494 YYYY=            -15.3494 ZZZZ=            -15.3494 XXXY=             -0.0000
 XXXZ=              0.0000 YYYX=             -0.0000 YYYZ=              0.0000 ZZZX=              0.0000
 ZZZY=              0.0000 XXYY=             -4.6110 XXZZ=             -4.6110 YYZZ=             -4.6110
 XXYZ=              0.0000 YYXZ=              0.0000 ZZXY=             -0.0000
 N-N= 1.341226063863D+01 E-N=-1.200044672057D+02  KE= 4.019566297481D+01
 Symmetry A    KE= 3.445720414213D+01
 Symmetry B1   KE= 1.912819610896D+00
 Symmetry B2   KE= 1.912819610896D+00
 Symmetry B3   KE= 1.912819610896D+00
 Orbital energies and kinetic energies (alpha):
                                 1                 2
   1         (A1)--O         -10.199785         15.965716
   2         (A1)--O          -0.707552          1.262886
   3         (T2)--O          -0.396440          0.956410
   4         (T2)--O          -0.396440          0.956410
   5         (T2)--O          -0.396440          0.956410
   6         (A1)--V           0.168068          1.098395
   7         (T2)--V           0.204319          0.869811
   8         (T2)--V           0.204319          0.869811
   9         (T2)--V           0.204319          0.869811
  10         (T2)--V           0.555563          1.744080
  11         (T2)--V           0.555563          1.744080
  12         (T2)--V           0.555563          1.744080
  13         (T2)--V           1.031759          2.561798
  14         (T2)--V           1.031759          2.561798
  15         (T2)--V           1.031759          2.561798
  16         (A1)--V           1.048009          2.228411
  17         (A1)--V           1.119040          2.636473
  18         (E)--V            1.665257          2.800000
  19         (E)--V            1.665257          2.800000
  20         (T2)--V           2.276666          3.610104
  21         (T2)--V           2.276666          3.610104
  22         (T2)--V           2.276666          3.610104
 Total kinetic energy from orbitals= 4.019566297481D+01
 No NMR shielding tensors so no spin-rotation constants.
 Leave Link  601 at Thu Feb 15 15:26:43 2018, MaxMem=   262144000 cpu:         0.3
 (Enter /home/chemsoft/gaussian/g09e01/g09/l701.exe)
 Compute integral first derivatives.
 ... and contract with generalized density number  0.
 Leave Link  701 at Thu Feb 15 15:26:43 2018, MaxMem=   262144000 cpu:         0.3
 (Enter /home/chemsoft/gaussian/g09e01/g09/l702.exe)
 L702 exits ... SP integral derivatives will be done elsewhere.
 Leave Link  702 at Thu Feb 15 15:26:43 2018, MaxMem=   262144000 cpu:         0.1
 (Enter /home/chemsoft/gaussian/g09e01/g09/l703.exe)
 Compute integral first derivatives, UseDBF=F ICtDFT=           0.
 Integral derivatives from FoFJK, PRISM(SPDF).
 Calling FoFJK, ICntrl=      2127 FMM=F ISym2X=1 I1Cent= 0 IOpClX= 0 NMat=1 NMatS=1 NMatT=0.
 FoFJK:  IHMeth= 1 ICntrl=    2127 DoSepK=F KAlg= 0 I1Cent=   0 FoldK=F
 IRaf=         0 NMat=   1 IRICut=       1 DoRegI=T DoRafI=F ISym2E= 1.
 FoFCou: FMM=F IPFlag=           0 FMFlag=      100000 FMFlg1=         800
         NFxFlg=           0 DoJE=F BraDBF=F KetDBF=F FulRan=T
         wScrn=  0.000000 ICntrl=    2127 IOpCl=  0 I1Cent=           0 NGrid=           0
         NMat0=    1 NMatS0=      1 NMatT0=    0 NMatD0=    1 NMtDS0=    0 NMtDT0=    0
 Petite list used in FoFCou.
 Leave Link  703 at Thu Feb 15 15:26:43 2018, MaxMem=   262144000 cpu:         0.7
 (Enter /home/chemsoft/gaussian/g09e01/g09/l716.exe)
 Dipole        =-2.22044605D-16 0.00000000D+00 0.00000000D+00
 ***** Axes restored to original set *****
 -------------------------------------------------------------------
 Center     Atomic                   Forces (Hartrees/Bohr)
 Number     Number              X              Y              Z
 -------------------------------------------------------------------
      1        6           0.000000000    0.000000000   -0.000000000
      2        1           0.001286730    0.001286730    0.001286730
      3        1           0.001286730   -0.001286730   -0.001286730
      4        1          -0.001286730    0.001286730   -0.001286730
      5        1          -0.001286730   -0.001286730    0.001286730
 -------------------------------------------------------------------
 Cartesian Forces:  Max     0.001286730 RMS     0.001150886
 Leave Link  716 at Thu Feb 15 15:26:43 2018, MaxMem=   262144000 cpu:         0.1
 (Enter /home/chemsoft/gaussian/g09e01/g09/l103.exe)

 GradGradGradGradGradGradGradGradGradGradGradGradGradGradGradGradGradGrad
 Berny optimization.
 FormGI is forming the generalized inverse of G from B-inverse, IUseBI=4.
 Internal  Forces:  Max     0.002228682 RMS     0.001191281
 Search for a local minimum.
 Step number   1 out of a maximum of  100
 All quantities printed in internal units (Hartrees-Bohrs-Radians)
 RMS Force = .11913D-02 SwitMx=.10000D-02 MixMth= 1
 Mixed Optimization -- RFO/linear search
 Second derivative matrix not updated -- first step.
 The second derivative matrix:
                          R1        R2        R3        R4        A1
           R1           0.34596
           R2           0.00000   0.34596
           R3           0.00000   0.00000   0.34596
           R4           0.00000   0.00000   0.00000   0.34596
           A1           0.00000   0.00000   0.00000   0.00000   0.16000
           A2           0.00000   0.00000   0.00000   0.00000   0.00000
           A3           0.00000   0.00000   0.00000   0.00000   0.00000
           A4           0.00000   0.00000   0.00000   0.00000   0.00000
           A5           0.00000   0.00000   0.00000   0.00000   0.00000
           A6           0.00000   0.00000   0.00000   0.00000   0.00000
           D1           0.00000   0.00000   0.00000   0.00000   0.00000
           D2           0.00000   0.00000   0.00000   0.00000   0.00000
           D3           0.00000   0.00000   0.00000   0.00000   0.00000
           D4           0.00000   0.00000   0.00000   0.00000   0.00000
                          A2        A3        A4        A5        A6
           A2           0.16000
           A3           0.00000   0.16000
           A4           0.00000   0.00000   0.16000
           A5           0.00000   0.00000   0.00000   0.16000
           A6           0.00000   0.00000   0.00000   0.00000   0.16000
           D1           0.00000   0.00000   0.00000   0.00000   0.00000
           D2           0.00000   0.00000   0.00000   0.00000   0.00000
           D3           0.00000   0.00000   0.00000   0.00000   0.00000
           D4           0.00000   0.00000   0.00000   0.00000   0.00000
                          D1        D2        D3        D4
           D1           0.00230
           D2           0.00000   0.00230
           D3           0.00000   0.00000   0.00230
           D4           0.00000   0.00000   0.00000   0.00230
 ITU=  0
     Eigenvalues ---    0.05082   0.05715   0.08641   0.16000   0.16000
     Eigenvalues ---    0.34596   0.34596   0.34596   0.34596
 RFO step:  Lambda=-5.74283468D-05 EMin= 5.08230769D-02
 Linear search not attempted -- first point.
 Iteration  1 RMS(Cart)=  0.00344280 RMS(Int)=  0.00000000
 Iteration  2 RMS(Cart)=  0.00000000 RMS(Int)=  0.00000000
 ITry= 1 IFail=0 DXMaxC= 3.72D-03 DCOld= 1.00D+10 DXMaxT= 3.00D-01 DXLimC= 3.00D+00 Rises=F
 ClnCor:  largest displacement from symmetrization is 6.92D-15 for atom     2.
 Variable       Old X    -DE/DX   Delta X   Delta X   Delta X     New X
                                 (Linear)    (Quad)   (Total)
    R1        2.06335   0.00223   0.00000   0.00644   0.00644   2.06979
    R2        2.06335   0.00223   0.00000   0.00644   0.00644   2.06979
    R3        2.06335   0.00223   0.00000   0.00644   0.00644   2.06979
    R4        2.06335   0.00223   0.00000   0.00644   0.00644   2.06979
    A1        1.91063  -0.00000   0.00000  -0.00000  -0.00000   1.91063
    A2        1.91063   0.00000   0.00000   0.00000   0.00000   1.91063
    A3        1.91063  -0.00000   0.00000  -0.00000   0.00000   1.91063
    A4        1.91063  -0.00000   0.00000  -0.00000   0.00000   1.91063
    A5        1.91063   0.00000   0.00000   0.00000  -0.00000   1.91063
    A6        1.91063  -0.00000   0.00000  -0.00000  -0.00000   1.91063
    D1        2.09440  -0.00000   0.00000  -0.00000  -0.00000   2.09440
    D2       -2.09440   0.00000   0.00000   0.00000   0.00000  -2.09440
    D3        2.09440   0.00000   0.00000   0.00000   0.00000   2.09440
    D4       -2.09440   0.00000   0.00000   0.00000   0.00000  -2.09440
         Item               Value     Threshold  Converged?
 Maximum Force            0.002229     0.000450     NO 
 RMS     Force            0.001191     0.000300     NO 
 Maximum Displacement     0.003719     0.001800     NO 
 RMS     Displacement     0.003443     0.001200     NO 
 Predicted change in Energy=-2.871417D-05
 Lowest energy point so far.  Saving SCF results.
 GradGradGradGradGradGradGradGradGradGradGradGradGradGradGradGradGradGrad

 Leave Link  103 at Thu Feb 15 15:26:43 2018, MaxMem=   262144000 cpu:         0.1
 (Enter /home/chemsoft/gaussian/g09e01/g09/l202.exe)
                          Input orientation:                          
 ---------------------------------------------------------------------
 Center     Atomic      Atomic             Coordinates (Angstroms)
 Number     Number       Type             X           Y           Z
 ---------------------------------------------------------------------
      1          6           0        0.000000   -0.000000    0.000000
      2          1           0        0.632365    0.632365    0.632365
      3          1           0        0.632365   -0.632365   -0.632365
      4          1           0       -0.632365    0.632365   -0.632365
      5          1           0       -0.632365   -0.632365    0.632365
 ---------------------------------------------------------------------
                    Distance matrix (angstroms):
                    1          2          3          4          5
     1  C    0.000000
     2  H    1.095288   0.000000
     3  H    1.095288   1.788598   0.000000
     4  H    1.095288   1.788598   1.788598   0.000000
     5  H    1.095288   1.788598   1.788598   1.788598   0.000000
 Stoichiometry    CH4
 Framework group  TD[O(C),4C3(H)]
 Deg. of freedom     1
 Full point group                 TD      NOp  24
 RotChk:  IX=0 Diff= 4.15D-16
 Largest Abelian subgroup         D2      NOp   4
 Largest concise Abelian subgroup D2      NOp   4
                         Standard orientation:                         
 ---------------------------------------------------------------------
 Center     Atomic      Atomic             Coordinates (Angstroms)
 Number     Number       Type             X           Y           Z
 ---------------------------------------------------------------------
      1          6           0        0.000000    0.000000    0.000000
      2          1           0        0.632365    0.632365    0.632365
      3          1           0       -0.632365   -0.632365    0.632365
      4          1           0        0.632365   -0.632365   -0.632365
      5          1           0       -0.632365    0.632365   -0.632365
 ---------------------------------------------------------------------
 Rotational constants (GHZ):    156.7496775    156.7496775    156.7496775
 Leave Link  202 at Thu Feb 15 15:26:44 2018, MaxMem=   262144000 cpu:         0.0
 (Enter /home/chemsoft/gaussian/g09e01/g09/l301.exe)
 Basis read from rwf:  (5D, 7F)
 No pseudopotential information found on rwf file.
 There are     8 symmetry adapted cartesian basis functions of A   symmetry.
 There are     5 symmetry adapted cartesian basis functions of B1  symmetry.
 There are     5 symmetry adapted cartesian basis functions of B2  symmetry.
 There are     5 symmetry adapted cartesian basis functions of B3  symmetry.
 There are     7 symmetry adapted basis functions of A   symmetry.
 There are     5 symmetry adapted basis functions of B1  symmetry.
 There are     5 symmetry adapted basis functions of B2  symmetry.
 There are     5 symmetry adapted basis functions of B3  symmetry.
    22 basis functions,    40 primitive gaussians,    23 cartesian basis functions
     5 alpha electrons        5 beta electrons
       nuclear repulsion energy        13.3705236707 Hartrees.
 IExCor= 1009 DFT=T Ex+Corr=PBE1PBE ExCW=0 ScaHFX=  0.250000
 ScaDFX=  0.750000  0.750000  1.000000  1.000000 ScalE2=  1.000000  1.000000
 IRadAn=      5 IRanWt=     -1 IRanGd=            0 ICorTp=0 IEmpDi=  4
 NAtoms=    5 NActive=    5 NUniq=    2 SFac= 4.00D+00 NAtFMM=   60 NAOKFM=F Big=F
 Integral buffers will be    131072 words long.
 Raffenetti 2 integral format.
 Two-electron integral symmetry is turned on.
 No density basis found on file   724.
 Leave Link  301 at Thu Feb 15 15:26:44 2018, MaxMem=   262144000 cpu:         0.2
 (Enter /home/chemsoft/gaussian/g09e01/g09/l302.exe)
 NPDir=0 NMtPBC=     1 NCelOv=     1 NCel=       1 NClECP=     1 NCelD=      1
         NCelK=      1 NCelE2=     1 NClLst=     1 CellRange=     0.0.
 One-electron integrals computed using PRISM.
 One-electron integral symmetry used in STVInt
 NBasis=    22 RedAO= T EigKep=  2.28D-02  NBF=     7     5     5     5
 NBsUse=    22 1.00D-06 EigRej= -1.00D+00 NBFU=     7     5     5     5
 Precomputing XC quadrature grid using
 IXCGrd= 4 IRadAn=           5 IRanWt=          -1 IRanGd=           0 AccXCQ= 0.00D+00.
 Generated NRdTot=       0 NPtTot=           0 NUsed=           0 NTot=          32
 NSgBfM=    23    23    23    23    23 MxSgAt=     5 MxSgA2=     5.
 Leave Link  302 at Thu Feb 15 15:26:44 2018, MaxMem=   262144000 cpu:         0.4
 (Enter /home/chemsoft/gaussian/g09e01/g09/l303.exe)
 DipDrv:  MaxL=1.
 Leave Link  303 at Thu Feb 15 15:26:44 2018, MaxMem=   262144000 cpu:         0.1
 (Enter /home/chemsoft/gaussian/g09e01/g09/l401.exe)
 Initial guess from the checkpoint file:  "methane.pbe0gen.chk"
 B after Tr=    -0.000000    0.000000    0.000000
         Rot=    1.000000    0.000000    0.000000    0.000000 Ang=   0.00 deg.
 Guess basis will be translated and rotated to current coordinates.
 JPrj=2 DoOrth=T DoCkMO=T.
 Initial guess orbital symmetries:
       Occupied  (A1) (A1) (T2) (T2) (T2)
       Virtual   (A1) (E) (E) (A1) (A1) (T2) (T2) (T2) (T2) (T2)
                 (T2) (T2) (T2) (T2) (T2) (T2) (T2)
 The electronic state of the initial guess is 1-A1.
 Leave Link  401 at Thu Feb 15 15:26:44 2018, MaxMem=   262144000 cpu:         0.3
 (Enter /home/chemsoft/gaussian/g09e01/g09/l502.exe)
 Closed shell SCF:
 Using DIIS extrapolation, IDIIS=  1040.
 Integral symmetry usage will be decided dynamically.
 Keep R1 ints in memory in symmetry-blocked form, NReq=1151528.
 IVT=      256287 IEndB=      256287 NGot=   262144000 MDV=   261878439
 LenX=   261878439 LenY=   261877469
 Requested convergence on RMS density matrix=1.00D-08 within 500 cycles.
 Requested convergence on MAX density matrix=1.00D-06.
 Requested convergence on             energy=1.00D-06.
 No special actions if energy rises.
 FoFCou: FMM=F IPFlag=           0 FMFlag=           0 FMFlg1=           0
         NFxFlg=           0 DoJE=F BraDBF=F KetDBF=F FulRan=T
         wScrn=  0.000000 ICntrl=     600 IOpCl=  0 I1Cent=           0 NGrid=           0
         NMat0=    1 NMatS0=    253 NMatT0=    0 NMatD0=    1 NMtDS0=    0 NMtDT0=    0
 Petite list used in FoFCou.

 Cycle   1  Pass 1  IDiag  1:
 E= -40.4471586800522    
 DIIS: error= 5.31D-04 at cycle   1 NSaved=   1.
 NSaved= 1 IEnMin= 1 EnMin= -40.4471586800522     IErMin= 1 ErrMin= 5.31D-04
 ErrMax= 5.31D-04  0.00D+00 EMaxC= 1.00D-01 BMatC= 5.43D-06 BMatP= 5.43D-06
 IDIUse=3 WtCom= 9.95D-01 WtEn= 5.31D-03
 Coeff-Com:  0.100D+01
 Coeff-En:   0.100D+01
 Coeff:      0.100D+01
 Gap=     0.965 Goal=   None    Shift=    0.000
 RMSDP=1.58D-04 MaxDP=1.14D-03              OVMax= 1.29D-03

 Cycle   2  Pass 1  IDiag  1:
 E= -40.4471607618318     Delta-E=       -0.000002081780 Rises=F Damp=F
 DIIS: error= 5.01D-04 at cycle   2 NSaved=   2.
 NSaved= 2 IEnMin= 2 EnMin= -40.4471607618318     IErMin= 2 ErrMin= 5.01D-04
 ErrMax= 5.01D-04  0.00D+00 EMaxC= 1.00D-01 BMatC= 4.45D-06 BMatP= 5.43D-06
 IDIUse=3 WtCom= 9.95D-01 WtEn= 5.01D-03
 Coeff-Com:  0.472D+00 0.528D+00
 Coeff-En:   0.384D+00 0.616D+00
 Coeff:      0.471D+00 0.529D+00
 Gap=     0.563 Goal=   None    Shift=    0.000
 RMSDP=7.70D-05 MaxDP=5.93D-04 DE=-2.08D-06 OVMax= 6.73D-04

 Cycle   3  Pass 1  IDiag  1:
 E= -40.4471653368814     Delta-E=       -0.000004575050 Rises=F Damp=F
 DIIS: error= 4.36D-05 at cycle   3 NSaved=   3.
 NSaved= 3 IEnMin= 3 EnMin= -40.4471653368814     IErMin= 3 ErrMin= 4.36D-05
 ErrMax= 4.36D-05  0.00D+00 EMaxC= 1.00D-01 BMatC= 3.45D-08 BMatP= 4.45D-06
 IDIUse=1 WtCom= 1.00D+00 WtEn= 0.00D+00
 Coeff-Com:  0.196D-02 0.812D-01 0.917D+00
 Coeff:      0.196D-02 0.812D-01 0.917D+00
 Gap=     0.563 Goal=   None    Shift=    0.000
 RMSDP=5.66D-06 MaxDP=5.09D-05 DE=-4.58D-06 OVMax= 5.57D-05

 Cycle   4  Pass 1  IDiag  1:
 E= -40.4471653720906     Delta-E=       -0.000000035209 Rises=F Damp=F
 DIIS: error= 5.52D-07 at cycle   4 NSaved=   4.
 NSaved= 4 IEnMin= 4 EnMin= -40.4471653720906     IErMin= 4 ErrMin= 5.52D-07
 ErrMax= 5.52D-07  0.00D+00 EMaxC= 1.00D-01 BMatC= 4.58D-12 BMatP= 3.45D-08
 IDIUse=1 WtCom= 1.00D+00 WtEn= 0.00D+00
 Coeff-Com: -0.111D-02-0.248D-02-0.233D-01 0.103D+01
 Coeff:     -0.111D-02-0.248D-02-0.233D-01 0.103D+01
 Gap=     0.563 Goal=   None    Shift=    0.000
 RMSDP=1.41D-07 MaxDP=1.68D-06 DE=-3.52D-08 OVMax= 1.05D-06

 Cycle   5  Pass 1  IDiag  1:
 E= -40.4471653720976     Delta-E=       -0.000000000007 Rises=F Damp=F
 DIIS: error= 5.40D-08 at cycle   5 NSaved=   5.
 NSaved= 5 IEnMin= 5 EnMin= -40.4471653720976     IErMin= 5 ErrMin= 5.40D-08
 ErrMax= 5.40D-08  0.00D+00 EMaxC= 1.00D-01 BMatC= 2.39D-14 BMatP= 4.58D-12
 IDIUse=1 WtCom= 1.00D+00 WtEn= 0.00D+00
 Coeff-Com:  0.914D-04 0.978D-04 0.152D-02-0.859D-01 0.108D+01
 Coeff:      0.914D-04 0.978D-04 0.152D-02-0.859D-01 0.108D+01
 Gap=     0.563 Goal=   None    Shift=    0.000
 RMSDP=8.15D-09 MaxDP=7.24D-08 DE=-7.01D-12 OVMax= 9.17D-08

 SCF Done:  E(RPBE1PBE) =  -40.4471653721     A.U. after    5 cycles
            NFock=  5  Conv=0.81D-08     -V/T= 2.0067
 KE= 4.017775148619D+01 PE=-1.199084624657D+02 EE= 2.591302193669D+01
 Leave Link  502 at Thu Feb 15 15:26:45 2018, MaxMem=   262144000 cpu:         1.2
 (Enter /home/chemsoft/gaussian/g09e01/g09/l508.exe)
 QCSCF skips out because SCF is already converged.
 Leave Link  508 at Thu Feb 15 15:26:45 2018, MaxMem=   262144000 cpu:         0.0
 (Enter /home/chemsoft/gaussian/g09e01/g09/l701.exe)
 Compute integral first derivatives.
 ... and contract with generalized density number  0.
 Leave Link  701 at Thu Feb 15 15:26:45 2018, MaxMem=   262144000 cpu:         0.3
 (Enter /home/chemsoft/gaussian/g09e01/g09/l702.exe)
 L702 exits ... SP integral derivatives will be done elsewhere.
 Leave Link  702 at Thu Feb 15 15:26:45 2018, MaxMem=   262144000 cpu:         0.1
 (Enter /home/chemsoft/gaussian/g09e01/g09/l703.exe)
 Compute integral first derivatives, UseDBF=F ICtDFT=           0.
 Integral derivatives from FoFJK, PRISM(SPDF).
 Calling FoFJK, ICntrl=      2127 FMM=F ISym2X=1 I1Cent= 0 IOpClX= 0 NMat=1 NMatS=1 NMatT=0.
 FoFJK:  IHMeth= 1 ICntrl=    2127 DoSepK=F KAlg= 0 I1Cent=   0 FoldK=F
 IRaf=         0 NMat=   1 IRICut=       1 DoRegI=T DoRafI=F ISym2E= 1.
 FoFCou: FMM=F IPFlag=           0 FMFlag=      100000 FMFlg1=         800
         NFxFlg=           0 DoJE=F BraDBF=F KetDBF=F FulRan=T
         wScrn=  0.000000 ICntrl=    2127 IOpCl=  0 I1Cent=           0 NGrid=           0
         NMat0=    1 NMatS0=      1 NMatT0=    0 NMatD0=    1 NMtDS0=    0 NMtDT0=    0
 Petite list used in FoFCou.
 Leave Link  703 at Thu Feb 15 15:26:45 2018, MaxMem=   262144000 cpu:         0.7
 (Enter /home/chemsoft/gaussian/g09e01/g09/l716.exe)
 Dipole        = 0.00000000D+00-2.22044605D-16 0.00000000D+00
 ***** Axes restored to original set *****
 -------------------------------------------------------------------
 Center     Atomic                   Forces (Hartrees/Bohr)
 Number     Number              X              Y              Z
 -------------------------------------------------------------------
      1        6          -0.000000000    0.000000000   -0.000000000
      2        1          -0.000063340   -0.000063340   -0.000063340
      3        1          -0.000063340    0.000063340    0.000063340
      4        1           0.000063340   -0.000063340    0.000063340
      5        1           0.000063340    0.000063340   -0.000063340
 -------------------------------------------------------------------
 Cartesian Forces:  Max     0.000063340 RMS     0.000056653
 Leave Link  716 at Thu Feb 15 15:26:45 2018, MaxMem=   262144000 cpu:         0.1
 (Enter /home/chemsoft/gaussian/g09e01/g09/l103.exe)

 GradGradGradGradGradGradGradGradGradGradGradGradGradGradGradGradGradGrad
 Berny optimization.
 Using GEDIIS/GDIIS optimizer.
 FormGI is forming the generalized inverse of G from B-inverse, IUseBI=4.
 Internal  Forces:  Max     0.000109708 RMS     0.000058642
 Search for a local minimum.
 Step number   2 out of a maximum of  100
 All quantities printed in internal units (Hartrees-Bohrs-Radians)
 RMS Force = .58642D-04 SwitMx=.10000D-02 MixMth= 2
 Mixed Optimization -- En-DIIS/RFO-DIIS
 Update second derivatives using D2CorX and points    1    2
 DE= -2.72D-05 DEPred=-2.87D-05 R= 9.47D-01
 TightC=F SS=  1.41D+00  RLast= 1.29D-02 DXNew= 5.0454D-01 3.8645D-02
 Trust test= 9.47D-01 RLast= 1.29D-02 DXMaxT set to 3.00D-01
 The second derivative matrix:
                          R1        R2        R3        R4        A1
           R1           0.35024
           R2           0.00427   0.35024
           R3           0.00427   0.00427   0.35024
           R4           0.00427   0.00427   0.00427   0.35024
           A1          -0.00000  -0.00000  -0.00000  -0.00000   0.16000
           A2           0.00000   0.00000   0.00000   0.00000  -0.00000
           A3          -0.00000  -0.00000  -0.00000  -0.00000   0.00000
           A4           0.00000   0.00000   0.00000   0.00000  -0.00000
           A5          -0.00000  -0.00000  -0.00000  -0.00000   0.00000
           A6          -0.00000  -0.00000  -0.00000  -0.00000   0.00000
           D1           0.00000   0.00000   0.00000   0.00000  -0.00000
           D2           0.00000   0.00000   0.00000   0.00000  -0.00000
           D3           0.00000   0.00000   0.00000   0.00000  -0.00000
           D4          -0.00000  -0.00000  -0.00000  -0.00000   0.00000
                          A2        A3        A4        A5        A6
           A2           0.16000
           A3          -0.00000   0.16000
           A4           0.00000  -0.00000   0.16000
           A5          -0.00000   0.00000  -0.00000   0.16000
           A6          -0.00000   0.00000  -0.00000   0.00000   0.16000
           D1           0.00000  -0.00000   0.00000  -0.00000  -0.00000
           D2           0.00000  -0.00000   0.00000  -0.00000  -0.00000
           D3           0.00000  -0.00000   0.00000  -0.00000  -0.00000
           D4          -0.00000   0.00000  -0.00000   0.00000   0.00000
                          D1        D2        D3        D4
           D1           0.00230
           D2           0.00000   0.00230
           D3           0.00000   0.00000   0.00230
           D4          -0.00000  -0.00000  -0.00000   0.00230
 ITU=  1  0
 Use linear search instead of GDIIS.
     Eigenvalues ---    0.05082   0.05715   0.08641   0.16000   0.16000
     Eigenvalues ---    0.34596   0.34596   0.34596   0.36305
 RFO step:  Lambda= 0.00000000D+00 EMin= 5.08230769D-02
 Quartic linear search produced a step of -0.04733.
 Iteration  1 RMS(Cart)=  0.00016295 RMS(Int)=  0.00000000
 Iteration  2 RMS(Cart)=  0.00000000 RMS(Int)=  0.00000000
 ITry= 1 IFail=0 DXMaxC= 1.76D-04 DCOld= 1.00D+10 DXMaxT= 3.00D-01 DXLimC= 3.00D+00 Rises=F
 ClnCor:  largest displacement from symmetrization is 7.86D-15 for atom     4.
 Variable       Old X    -DE/DX   Delta X   Delta X   Delta X     New X
                                 (Linear)    (Quad)   (Total)
    R1        2.06979  -0.00011  -0.00030   0.00000  -0.00030   2.06949
    R2        2.06979  -0.00011  -0.00030   0.00000  -0.00030   2.06949
    R3        2.06979  -0.00011  -0.00030  -0.00000  -0.00030   2.06949
    R4        2.06979  -0.00011  -0.00030   0.00000  -0.00030   2.06949
    A1        1.91063  -0.00000   0.00000  -0.00000   0.00000   1.91063
    A2        1.91063  -0.00000  -0.00000   0.00000   0.00000   1.91063
    A3        1.91063   0.00000  -0.00000   0.00000  -0.00000   1.91063
    A4        1.91063  -0.00000  -0.00000  -0.00000  -0.00000   1.91063
    A5        1.91063   0.00000   0.00000   0.00000   0.00000   1.91063
    A6        1.91063  -0.00000   0.00000  -0.00000   0.00000   1.91063
    D1        2.09440  -0.00000   0.00000  -0.00000   0.00000   2.09440
    D2       -2.09440  -0.00000  -0.00000  -0.00000   0.00000  -2.09440
    D3        2.09440   0.00000  -0.00000   0.00000  -0.00000   2.09440
    D4       -2.09440   0.00000   0.00000   0.00000   0.00000  -2.09440
         Item               Value     Threshold  Converged?
 Maximum Force            0.000110     0.000450     YES
 RMS     Force            0.000059     0.000300     YES
 Maximum Displacement     0.000176     0.001800     YES
 RMS     Displacement     0.000163     0.001200     YES
 Predicted change in Energy=-6.629860D-08
 Optimization completed.
    -- Stationary point found.
                           ----------------------------
                           !   Optimized Parameters   !
                           ! (Angstroms and Degrees)  !
 --------------------------                            --------------------------
 ! Name  Definition              Value          Derivative Info.                !
 --------------------------------------------------------------------------------
 ! R1    R(1,2)                  1.0953         -DE/DX =   -0.0001              !
 ! R2    R(1,3)                  1.0953         -DE/DX =   -0.0001              !
 ! R3    R(1,4)                  1.0953         -DE/DX =   -0.0001              !
 ! R4    R(1,5)                  1.0953         -DE/DX =   -0.0001              !
 ! A1    A(2,1,3)              109.4712         -DE/DX =    0.0                 !
 ! A2    A(2,1,4)              109.4712         -DE/DX =    0.0                 !
 ! A3    A(2,1,5)              109.4712         -DE/DX =    0.0                 !
 ! A4    A(3,1,4)              109.4712         -DE/DX =    0.0                 !
 ! A5    A(3,1,5)              109.4712         -DE/DX =    0.0                 !
 ! A6    A(4,1,5)              109.4712         -DE/DX =    0.0                 !
 ! D1    D(2,1,4,3)            120.0            -DE/DX =    0.0                 !
 ! D2    D(2,1,5,3)           -120.0            -DE/DX =    0.0                 !
 ! D3    D(2,1,5,4)            120.0            -DE/DX =    0.0                 !
 ! D4    D(3,1,5,4)           -120.0            -DE/DX =    0.0                 !
 --------------------------------------------------------------------------------
 Lowest energy point so far.  Saving SCF results.
 GradGradGradGradGradGradGradGradGradGradGradGradGradGradGradGradGradGrad

 Largest change from initial coordinates is atom    2       0.003 Angstoms.
 Leave Link  103 at Thu Feb 15 15:26:45 2018, MaxMem=   262144000 cpu:         0.0
 (Enter /home/chemsoft/gaussian/g09e01/g09/l202.exe)
                          Input orientation:                          
 ---------------------------------------------------------------------
 Center     Atomic      Atomic             Coordinates (Angstroms)
 Number     Number       Type             X           Y           Z
 ---------------------------------------------------------------------
      1          6           0        0.000000    0.000000    0.000000
      2          1           0        0.632365    0.632365    0.632365
      3          1           0        0.632365   -0.632365   -0.632365
      4          1           0       -0.632365    0.632365   -0.632365
      5          1           0       -0.632365   -0.632365    0.632365
 ---------------------------------------------------------------------
                    Distance matrix (angstroms):
                    1          2          3          4          5
     1  C    0.000000
     2  H    1.095288   0.000000
     3  H    1.095288   1.788598   0.000000
     4  H    1.095288   1.788598   1.788598   0.000000
     5  H    1.095288   1.788598   1.788598   1.788598   0.000000
 Stoichiometry    CH4
 Framework group  TD[O(C),4C3(H)]
 Deg. of freedom     1
 Full point group                 TD      NOp  24
 RotChk:  IX=0 Diff= 4.37D-16
 Largest Abelian subgroup         D2      NOp   4
 Largest concise Abelian subgroup D2      NOp   4
                         Standard orientation:                         
 ---------------------------------------------------------------------
 Center     Atomic      Atomic             Coordinates (Angstroms)
 Number     Number       Type             X           Y           Z
 ---------------------------------------------------------------------
      1          6           0        0.000000    0.000000    0.000000
      2          1           0        0.632365    0.632365    0.632365
      3          1           0       -0.632365   -0.632365    0.632365
      4          1           0        0.632365   -0.632365   -0.632365
      5          1           0       -0.632365    0.632365   -0.632365
 ---------------------------------------------------------------------
 Rotational constants (GHZ):    156.7496775    156.7496775    156.7496775
 Leave Link  202 at Thu Feb 15 15:26:46 2018, MaxMem=   262144000 cpu:         0.1
 (Enter /home/chemsoft/gaussian/g09e01/g09/l601.exe)
 Copying SCF densities to generalized density rwf, IOpCl= 0 IROHF=0.

 **********************************************************************

            Population analysis using the SCF density.

 **********************************************************************

 Orbital symmetries:
       Occupied  (A1) (A1) (T2) (T2) (T2)
       Virtual   (A1) (T2) (T2) (T2) (T2) (T2) (T2) (T2) (T2) (T2)
                 (A1) (A1) (E) (E) (T2) (T2) (T2)
 The electronic state is 1-A1.
 Alpha  occ. eigenvalues --  -10.20126  -0.70647  -0.39584  -0.39584  -0.39584
 Alpha virt. eigenvalues --    0.16694   0.20314   0.20314   0.20314   0.55652
 Alpha virt. eigenvalues --    0.55652   0.55652   1.02952   1.02952   1.02952
 Alpha virt. eigenvalues --    1.04500   1.11651   1.66598   1.66598   2.27193
 Alpha virt. eigenvalues --    2.27193   2.27193
     Molecular Orbital Coefficients:
                           1         2         3         4         5
                        (A1)--O   (A1)--O   (T2)--O   (T2)--O   (T2)--O
     Eigenvalues --   -10.20126  -0.70647  -0.39584  -0.39584  -0.39584
   1 1   C  1S          0.99530  -0.19890   0.00000   0.00000   0.00000
   2        2S          0.03492   0.37559   0.00000   0.00000   0.00000
   3        2PX         0.00000   0.00000   0.44396   0.00000   0.00000
   4        2PY         0.00000   0.00000   0.00000   0.44396   0.00000
   5        2PZ         0.00000   0.00000   0.00000   0.00000   0.44396
   6        3S         -0.02859   0.39790   0.00000   0.00000   0.00000
   7        3PX         0.00000   0.00000   0.23259   0.00000   0.00000
   8        3PY         0.00000   0.00000   0.00000   0.23259   0.00000
   9        3PZ         0.00000   0.00000   0.00000   0.00000   0.23259
  10        4D 0        0.00000  -0.00000   0.00000   0.00000   0.00000
  11        4D+1        0.00000   0.00000   0.00000   0.02359   0.00000
  12        4D-1        0.00000   0.00000   0.02359   0.00000   0.00000
  13        4D+2        0.00000   0.00000   0.00000   0.00000   0.00000
  14        4D-2        0.00000   0.00000   0.00000   0.00000   0.02359
  15 2   H  1S         -0.00089   0.12014   0.15044   0.15044   0.15044
  16        2S          0.00586   0.04377   0.15204   0.15204   0.15204
  17 3   H  1S         -0.00089   0.12014  -0.15044  -0.15044   0.15044
  18        2S          0.00586   0.04377  -0.15204  -0.15204   0.15204
  19 4   H  1S         -0.00089   0.12014   0.15044  -0.15044  -0.15044
  20        2S          0.00586   0.04377   0.15204  -0.15204  -0.15204
  21 5   H  1S         -0.00089   0.12014  -0.15044   0.15044  -0.15044
  22        2S          0.00586   0.04377  -0.15204   0.15204  -0.15204
                           6         7         8         9        10
                        (A1)--V   (T2)--V   (T2)--V   (T2)--V   (T2)--V
     Eigenvalues --     0.16694   0.20314   0.20314   0.20314   0.55652
   1 1   C  1S         -0.16617   0.00000   0.00000   0.00000   0.00000
   2        2S          0.23815   0.00000   0.00000   0.00000   0.00000
   3        2PX         0.00000   0.00000   0.36471   0.00000  -0.89529
   4        2PY         0.00000   0.00000   0.00000   0.36471   0.00000
   5        2PZ         0.00000   0.36471   0.00000   0.00000   0.00000
   6        3S          2.73115   0.00000   0.00000   0.00000   0.00000
   7        3PX         0.00000   0.00000   1.43467   0.00000   1.41798
   8        3PY         0.00000   0.00000   0.00000   1.43467   0.00000
   9        3PZ         0.00000   1.43467   0.00000   0.00000   0.00000
  10        4D 0        0.00000   0.00000   0.00000   0.00000   0.00000
  11        4D+1        0.00000   0.00000   0.00000  -0.02607   0.00000
  12        4D-1        0.00000   0.00000  -0.02607   0.00000  -0.08085
  13        4D+2        0.00000   0.00000   0.00000   0.00000   0.00000
  14        4D-2        0.00000  -0.02607   0.00000   0.00000   0.00000
  15 2   H  1S         -0.01516  -0.07519  -0.07519  -0.07519  -0.19641
  16        2S         -1.08304  -1.05023  -1.05023  -1.05023  -0.14155
  17 3   H  1S         -0.01516  -0.07519   0.07519   0.07519   0.19641
  18        2S         -1.08304  -1.05023   1.05023   1.05023   0.14155
  19 4   H  1S         -0.01516   0.07519  -0.07519   0.07519  -0.19641
  20        2S         -1.08304   1.05023  -1.05023   1.05023  -0.14155
  21 5   H  1S         -0.01516   0.07519   0.07519  -0.07519   0.19641
  22        2S         -1.08304   1.05023   1.05023  -1.05023   0.14155
                          11        12        13        14        15
                        (T2)--V   (T2)--V   (T2)--V   (T2)--V   (T2)--V
     Eigenvalues --     0.55652   0.55652   1.02952   1.02952   1.02952
   1 1   C  1S          0.00000   0.00000   0.00000   0.00000   0.00000
   2        2S          0.00000   0.00000   0.00000   0.00000   0.00000
   3        2PX         0.00000   0.00000   0.00000   0.00000  -0.68906
   4        2PY        -0.89529   0.00000   0.00000  -0.68906   0.00000
   5        2PZ         0.00000  -0.89529  -0.68906   0.00000   0.00000
   6        3S          0.00000   0.00000   0.00000   0.00000   0.00000
   7        3PX         0.00000   0.00000   0.00000   0.00000   1.14579
   8        3PY         1.41798   0.00000   0.00000   1.14579   0.00000
   9        3PZ         0.00000   1.41798   1.14579   0.00000   0.00000
  10        4D 0        0.00000   0.00000   0.00000   0.00000   0.00000
  11        4D+1       -0.08085   0.00000   0.00000   0.26208   0.00000
  12        4D-1        0.00000   0.00000   0.00000   0.00000   0.26208
  13        4D+2        0.00000   0.00000   0.00000   0.00000   0.00000
  14        4D-2        0.00000  -0.08085   0.26208   0.00000   0.00000
  15 2   H  1S         -0.19641  -0.19641   0.53564   0.53564   0.53564
  16        2S         -0.14155  -0.14155  -0.98265  -0.98265  -0.98265
  17 3   H  1S          0.19641  -0.19641   0.53564  -0.53564  -0.53564
  18        2S          0.14155  -0.14155  -0.98265   0.98265   0.98265
  19 4   H  1S          0.19641   0.19641  -0.53564  -0.53564   0.53564
  20        2S          0.14155   0.14155   0.98265   0.98265  -0.98265
  21 5   H  1S         -0.19641   0.19641  -0.53564   0.53564  -0.53564
  22        2S         -0.14155   0.14155   0.98265  -0.98265   0.98265
                          16        17        18        19        20
                        (A1)--V   (A1)--V   (E)--V    (E)--V    (T2)--V
     Eigenvalues --     1.04500   1.11651   1.66598   1.66598   2.27193
   1 1   C  1S         -0.11859   0.00182   0.00000   0.00000   0.00000
   2        2S         -0.66039  -2.27643  -0.00000  -0.00000   0.00000
   3        2PX         0.00000   0.00000   0.00000   0.00000   0.00000
   4        2PY         0.00000   0.00000   0.00000   0.00000   0.00000
   5        2PZ         0.00000   0.00000   0.00000   0.00000   0.15828
   6        3S          2.02038   5.29165  -0.00000   0.00000   0.00000
   7        3PX         0.00000   0.00000   0.00000   0.00000   0.00000
   8        3PY         0.00000   0.00000   0.00000   0.00000   0.00000
   9        3PZ         0.00000   0.00000   0.00000   0.00000   0.37039
  10        4D 0        0.00000  -0.00000   0.99978  -0.02110   0.00000
  11        4D+1        0.00000   0.00000   0.00000   0.00000   0.00000
  12        4D-1        0.00000   0.00000   0.00000   0.00000   0.00000
  13        4D+2        0.00000  -0.00000   0.02110   0.99978   0.00000
  14        4D-2        0.00000   0.00000   0.00000   0.00000   1.11966
  15 2   H  1S         -0.64211   0.19414   0.00000   0.00000  -0.47339
  16        2S         -0.14068  -1.31874  -0.00000  -0.00000   0.06549
  17 3   H  1S         -0.64211   0.19414   0.00000   0.00000  -0.47339
  18        2S         -0.14068  -1.31874  -0.00000  -0.00000   0.06549
  19 4   H  1S         -0.64211   0.19414   0.00000   0.00000   0.47339
  20        2S         -0.14068  -1.31874  -0.00000  -0.00000  -0.06549
  21 5   H  1S         -0.64211   0.19414   0.00000   0.00000   0.47339
  22        2S         -0.14068  -1.31874  -0.00000  -0.00000  -0.06549
                          21        22
                        (T2)--V   (T2)--V
     Eigenvalues --     2.27193   2.27193
   1 1   C  1S          0.00000   0.00000
   2        2S          0.00000   0.00000
   3        2PX         0.00000   0.15828
   4        2PY         0.15828   0.00000
   5        2PZ         0.00000   0.00000
   6        3S          0.00000   0.00000
   7        3PX         0.00000   0.37039
   8        3PY         0.37039   0.00000
   9        3PZ         0.00000   0.00000
  10        4D 0        0.00000   0.00000
  11        4D+1        1.11966   0.00000
  12        4D-1        0.00000   1.11966
  13        4D+2        0.00000   0.00000
  14        4D-2        0.00000   0.00000
  15 2   H  1S         -0.47339  -0.47339
  16        2S          0.06549   0.06549
  17 3   H  1S          0.47339   0.47339
  18        2S         -0.06549  -0.06549
  19 4   H  1S          0.47339  -0.47339
  20        2S         -0.06549   0.06549
  21 5   H  1S         -0.47339   0.47339
  22        2S          0.06549  -0.06549
          Condensed to atoms (all electrons):
               1          2          3          4          5
     1  C    5.247763   0.379614   0.379614   0.379614   0.379614
     2  H    0.379614   0.498095  -0.023088  -0.023088  -0.023088
     3  H    0.379614  -0.023088   0.498095  -0.023088  -0.023088
     4  H    0.379614  -0.023088  -0.023088   0.498095  -0.023088
     5  H    0.379614  -0.023088  -0.023088  -0.023088   0.498095
 Mulliken charges:
               1
     1  C   -0.766221
     2  H    0.191555
     3  H    0.191555
     4  H    0.191555
     5  H    0.191555
 Sum of Mulliken charges =   0.00000
 Mulliken charges with hydrogens summed into heavy atoms:
               1
     1  C    0.000000
 Electronic spatial extent (au):  <R**2>=             35.3468
 Charge=              0.0000 electrons
 Dipole moment (field-independent basis, Debye):
    X=              0.0000    Y=             -0.0000    Z=             -0.0000  Tot=              0.0000
 Quadrupole moment (field-independent basis, Debye-Ang):
   XX=             -8.1646   YY=             -8.1646   ZZ=             -8.1646
   XY=              0.0000   XZ=             -0.0000   YZ=              0.0000
 Traceless Quadrupole moment (field-independent basis, Debye-Ang):
   XX=              0.0000   YY=              0.0000   ZZ=             -0.0000
   XY=              0.0000   XZ=             -0.0000   YZ=              0.0000
 Octapole moment (field-independent basis, Debye-Ang**2):
  XXX=             -0.0000  YYY=             -0.0000  ZZZ=              0.0000  XYY=              0.0000
  XXY=             -0.0000  XXZ=              0.0000  XZZ=              0.0000  YZZ=              0.0000
  YYZ=             -0.0000  XYZ=              0.8232
 Hexadecapole moment (field-independent basis, Debye-Ang**3):
 XXXX=            -15.4259 YYYY=            -15.4259 ZZZZ=            -15.4259 XXXY=             -0.0000
 XXXZ=             -0.0000 YYYX=             -0.0000 YYYZ=              0.0000 ZZZX=              0.0000
 ZZZY=             -0.0000 XXYY=             -4.6300 XXZZ=             -4.6300 YYZZ=             -4.6300
 XXYZ=              0.0000 YYXZ=             -0.0000 ZZXY=             -0.0000
 N-N= 1.337052367073D+01 E-N=-1.199084631243D+02  KE= 4.017775148619D+01
 Symmetry A    KE= 3.445394852837D+01
 Symmetry B1   KE= 1.907934319272D+00
 Symmetry B2   KE= 1.907934319272D+00
 Symmetry B3   KE= 1.907934319272D+00
 Orbital energies and kinetic energies (alpha):
                                 1                 2
   1         (A1)--O         -10.201264         15.966045
   2         (A1)--O          -0.706471          1.260929
   3         (T2)--O          -0.395841          0.953967
   4         (T2)--O          -0.395841          0.953967
   5         (T2)--O          -0.395841          0.953967
   6         (A1)--V           0.166939          1.101117
   7         (T2)--V           0.203136          0.871858
   8         (T2)--V           0.203136          0.871858
   9         (T2)--V           0.203136          0.871858
  10         (T2)--V           0.556515          1.748397
  11         (T2)--V           0.556515          1.748397
  12         (T2)--V           0.556515          1.748397
  13         (T2)--V           1.029517          2.554017
  14         (T2)--V           1.029517          2.554017
  15         (T2)--V           1.029517          2.554017
  16         (A1)--V           1.044999          2.250403
  17         (A1)--V           1.116511          2.604181
  18         (E)--V            1.665984          2.800000
  19         (E)--V            1.665984          2.800000
  20         (T2)--V           2.271931          3.603013
  21         (T2)--V           2.271931          3.603013
  22         (T2)--V           2.271931          3.603013
 Total kinetic energy from orbitals= 4.017775148619D+01
 No NMR shielding tensors so no spin-rotation constants.
 Leave Link  601 at Thu Feb 15 15:26:46 2018, MaxMem=   262144000 cpu:         0.3
 (Enter /home/chemsoft/gaussian/g09e01/g09/l9999.exe)

 Test job not archived.
 1\1\GINC-LENOX07\FOpt\RPBE1PBE\Gen\C1H4\MARTIN\15-Feb-2018\0\\#P PBE1P
 BE/gen opt(MaxCycle=100) scf(xqc,MaxConventionalCycle=500) int(ultrafi
 negrid) gfinput gfoldprint iop(6/7=3) symmetry=loose\\Methane PBE0/C:6
 -31G*;H:3-21G\\0,1\C,0.,0.,0.\H,0.6323648256,0.6323648256,0.6323648256
 \H,0.6323648256,-0.6323648226,-0.6323648287\H,-0.6323648287,0.63236482
 56,-0.6323648226\H,-0.6323648226,-0.6323648287,0.6323648256\\Version=E
 S64L-G09RevE.01\State=1-A1\HF=-40.4471654\RMSD=8.146e-09\RMSF=5.665e-0
 5\Dipole=0.,0.,0.\Quadrupole=0.,0.,0.,0.,0.,0.\PG=TD [O(C1),4C3(H1)]\\
 @


 ONE BIG VICE IN A MAN IS APT TO KEEP OUT MANY SMALLER ONES.

                           -- BRET HARTE
 Job cpu time:       0 days  0 hours  0 minutes  9.2 seconds.
 File lengths (MBytes):  RWF=      5 Int=      0 D2E=      0 Chk=      1 Scr=      1
 Normal termination of Gaussian 09 at Thu Feb 15 15:26:46 2018.
