 Entering Gaussian System, Link 0=g09
 Input=h2o.mp5.def2svp.nbo6.gjf
 Output=h2o.mp5.def2svp.nbo6.log
 Initial command:
 /home/chemsoft/gaussian/g09e01/g09/l1.exe "/scr/martin/g09job987/Gau-30420.inp" -scrdir="/scr/martin/g09job987/"
 Entering Link 1 = /home/chemsoft/gaussian/g09e01/g09/l1.exe PID=     30421.
  
 Copyright (c) 1988,1990,1992,1993,1995,1998,2003,2009,2015,
            Gaussian, Inc.  All Rights Reserved.
  
 This is part of the Gaussian(R) 09 program.  It is based on
 the Gaussian(R) 03 system (copyright 2003, Gaussian, Inc.),
 the Gaussian(R) 98 system (copyright 1998, Gaussian, Inc.),
 the Gaussian(R) 94 system (copyright 1995, Gaussian, Inc.),
 the Gaussian 92(TM) system (copyright 1992, Gaussian, Inc.),
 the Gaussian 90(TM) system (copyright 1990, Gaussian, Inc.),
 the Gaussian 88(TM) system (copyright 1988, Gaussian, Inc.),
 the Gaussian 86(TM) system (copyright 1986, Carnegie Mellon
 University), and the Gaussian 82(TM) system (copyright 1983,
 Carnegie Mellon University). Gaussian is a federally registered
 trademark of Gaussian, Inc.
  
 This software contains proprietary and confidential information,
 including trade secrets, belonging to Gaussian, Inc.
  
 This software is provided under written license and may be
 used, copied, transmitted, or stored only in accord with that
 written license.
  
 The following legend is applicable only to US Government
 contracts under FAR:
  
                    RESTRICTED RIGHTS LEGEND
  
 Use, reproduction and disclosure by the US Government is
 subject to restrictions as set forth in subparagraphs (a)
 and (c) of the Commercial Computer Software - Restricted
 Rights clause in FAR 52.227-19.
  
 Gaussian, Inc.
 340 Quinnipiac St., Bldg. 40, Wallingford CT 06492
  
  
 ---------------------------------------------------------------
 Warning -- This program may not be used in any manner that
 competes with the business of Gaussian, Inc. or will provide
 assistance to any competitor of Gaussian, Inc.  The licensee
 of this program is prohibited from giving any competitor of
 Gaussian, Inc. access to this program.  By using this program,
 the user acknowledges that Gaussian, Inc. is engaged in the
 business of creating and licensing software in the field of
 computational chemistry and represents and warrants to the
 licensee that it is not a competitor of Gaussian, Inc. and that
 it will not use this program in any manner prohibited above.
 ---------------------------------------------------------------
  

 Cite this work as:
 Gaussian 09, Revision E.01,
 M. J. Frisch, G. W. Trucks, H. B. Schlegel, G. E. Scuseria, 
 M. A. Robb, J. R. Cheeseman, G. Scalmani, V. Barone, B. Mennucci, 
 G. A. Petersson, H. Nakatsuji, M. Caricato, X. Li, H. P. Hratchian, 
 A. F. Izmaylov, J. Bloino, G. Zheng, J. L. Sonnenberg, M. Hada, 
 M. Ehara, K. Toyota, R. Fukuda, J. Hasegawa, M. Ishida, T. Nakajima, 
 Y. Honda, O. Kitao, H. Nakai, T. Vreven, J. A. Montgomery, Jr., 
 J. E. Peralta, F. Ogliaro, M. Bearpark, J. J. Heyd, E. Brothers, 
 K. N. Kudin, V. N. Staroverov, T. Keith, R. Kobayashi, J. Normand, 
 K. Raghavachari, A. Rendell, J. C. Burant, S. S. Iyengar, J. Tomasi, 
 M. Cossi, N. Rega, J. M. Millam, M. Klene, J. E. Knox, J. B. Cross, 
 V. Bakken, C. Adamo, J. Jaramillo, R. Gomperts, R. E. Stratmann, 
 O. Yazyev, A. J. Austin, R. Cammi, C. Pomelli, J. W. Ochterski, 
 R. L. Martin, K. Morokuma, V. G. Zakrzewski, G. A. Voth, 
 P. Salvador, J. J. Dannenberg, S. Dapprich, A. D. Daniels, 
 O. Farkas, J. B. Foresman, J. V. Ortiz, J. Cioslowski, 
 and D. J. Fox, Gaussian, Inc., Wallingford CT, 2013.
 
 ******************************************
 Gaussian 09:  ES64L-G09RevE.01 30-Nov-2015
                 9-Jan-2018 
 ******************************************
 %chk=h2o.mp5.def2svp.nbo6.chk
 %nproc=8
 Will use up to    8 processors via shared memory.
 %mem=32000MB
 ----------------------------------------------------------------------
 #p MP5/def2SVP opt scf(xqc) gfinput gfoldprint iop(6/7=3) scrf(pcm,sol
 vent=toluene) pop=full pop=nbo6 pop=allorbitals symmetry=loose
 ----------------------------------------------------------------------

 Warning:  this job cannot use analytic gradients
           and so will do many energy evaluations.

 1/14=-1,29=20000,38=1/1,14;
 2/12=2,17=4,18=3,29=3,40=1/2;
 3/5=43,7=101,11=2,16=1,24=11,25=1,30=1,70=2201,72=13,116=2/1,2,3;
 4//1;
 5/5=2,8=3,13=1,38=5,53=13/2,8;
 8/6=5,10=1/1,4;
 9/5=5/16,15;
 6/7=3,40=1,87=-1,113=1,114=1,124=3103/1,12;
 1/14=-1/14(2);
 2/29=3/2;
 99//99;
 2/29=3/2;
 3/5=43,7=101,11=2,16=1,25=1,30=1,70=2205,72=13,116=2/1,2,3;
 4/5=5,16=3,69=1/1;
 5/5=2,8=3,13=1,38=5,53=13/2,8;
 8/6=5,10=1/1,4;
 9/5=5/16,15;
 1/14=-1/14(-6);
 2/29=3/2;
 6/7=3,40=1,87=-1,113=1,114=1,124=3103/1,12;
 99//99;
 Leave Link    1 at Tue Jan  9 18:58:30 2018, MaxMem=  4194304000 cpu:         0.5
 (Enter /home/chemsoft/gaussian/g09e01/g09/l101.exe)
 ------------------
 Water MP5/def2-SVP
 ------------------
 Symbolic Z-matrix:
 Charge =  0 Multiplicity = 1
 O
 H                    1    bond
 H                    1    bond     2    angle
       Variables:
  bond                  1.2                      
  angle               109.                       
 
 NAtoms=      3 NQM=        3 NQMF=       0 NMMI=      0 NMMIF=      0
                NMic=       0 NMicF=      0.
                    Isotopes and Nuclear Properties:
 (Nuclear quadrupole moments (NQMom) in fm**2, nuclear magnetic moments (NMagM)
  in nuclear magnetons)

  Atom         1           2           3
 IAtWgt=          16           1           1
 AtmWgt=  15.9949146   1.0078250   1.0078250
 NucSpn=           0           1           1
 AtZEff=   0.0000000   0.0000000   0.0000000
 NQMom=    0.0000000   0.0000000   0.0000000
 NMagM=    0.0000000   2.7928460   2.7928460
 AtZNuc=   8.0000000   1.0000000   1.0000000
 Leave Link  101 at Tue Jan  9 18:58:30 2018, MaxMem=  4194304000 cpu:         0.5
 (Enter /home/chemsoft/gaussian/g09e01/g09/l114.exe)

 NEF-NEF-NEF-NEF-NEF-NEF-NEF-NEF-NEF-NEF-NEF-NEF-NEF-NEF-NEF-NEF-NEF-NEF-
 NUMERICAL EIGENVECTOR FOLLOWING MINIMUM SEARCH
 INITIALIZATION PASS
                       ----------------------------
                       !    Initial Parameters    !
                       ! (Angstroms and Degrees)  !
 ----------------------                            ----------------------
 !      Name          Value   Derivative information (Atomic Units)     !
 ------------------------------------------------------------------------
 !      bond         1.2      estimate D2E/DX2                          !
 !      angle      109.0      estimate D2E/DX2                          !
 ------------------------------------------------------------------------


 ***************************************************
 ** O P T I M I Z A T I O N   P A R A M E T E R S **
 **  MAXIMUM NO. OF ITERATIONS      :          22 **
 **  MAXIMUM ALLOWED STEP LENGTH    :    0.300000 **
 ***************************************************



 NEF-NEF-NEF-NEF-NEF-NEF-NEF-NEF-NEF-NEF-NEF-NEF-NEF-NEF-NEF-NEF-NEF-NEF-
 Leave Link  114 at Tue Jan  9 18:58:30 2018, MaxMem=  4194304000 cpu:         0.0
 (Enter /home/chemsoft/gaussian/g09e01/g09/l202.exe)
 ---------------------------------------------------------------------------------------------------
                            Z-MATRIX (ANGSTROMS AND DEGREES)
   CD    Cent   Atom    N1       Length/X        N2       Alpha/Y        N3        Beta/Z          J
 ---------------------------------------------------------------------------------------------------
      1      1  O 
      2      2  H        1   1.200000(     1)
      3      3  H        1   1.200000(     2)      2  109.000(     3)
 ---------------------------------------------------------------------------------------------------
                         Z-Matrix orientation:                         
 ---------------------------------------------------------------------
 Center     Atomic      Atomic             Coordinates (Angstroms)
 Number     Number       Type             X           Y           Z
 ---------------------------------------------------------------------
      1          8           0        0.000000    0.000000    0.000000
      2          1           0        0.000000    0.000000    1.200000
      3          1           0        1.134622    0.000000   -0.390682
 ---------------------------------------------------------------------
                    Distance matrix (angstroms):
                    1          2          3
     1  O    0.000000
     2  H    1.200000   0.000000
     3  H    1.200000   1.953877   0.000000
 Stoichiometry    H2O
 Framework group  C2V[C2(O),SGV(H2)]
 Deg. of freedom     2
 Full point group                 C2V     NOp   4
 Largest Abelian subgroup         C2V     NOp   4
 Largest concise Abelian subgroup C2      NOp   2
                         Standard orientation:                         
 ---------------------------------------------------------------------
 Center     Atomic      Atomic             Coordinates (Angstroms)
 Number     Number       Type             X           Y           Z
 ---------------------------------------------------------------------
      1          8           0        0.000000    0.000000    0.139369
      2          1           0       -0.000000    0.976939   -0.557475
      3          1           0       -0.000000   -0.976939   -0.557475
 ---------------------------------------------------------------------
 Rotational constants (GHZ):    581.4025008    262.7044919    180.9451289
 Leave Link  202 at Tue Jan  9 18:58:30 2018, MaxMem=  4194304000 cpu:         0.3
 (Enter /home/chemsoft/gaussian/g09e01/g09/l301.exe)
 Standard basis: def2SVP (5D, 7F)
 ======================================================================================================
                                       Pseudopotential Parameters
 ======================================================================================================
  Center     Atomic      Valence      Angular      Power
  Number     Number     Electrons     Momentum     of R      Exponent        Coefficient   SO-Coeffient
 ======================================================================================================
    1          8
                                   No pseudopotential on this center.
    2          1
                                   No pseudopotential on this center.
    3          1
                                   No pseudopotential on this center.
 ======================================================================================================
 Ernie: Thresh=  0.10000D-02 Tol=  0.10000D-05 Strict=F.
 AO basis set in the form of general basis input (Overlap normalization):
      1 0
 S   5 1.00       0.000000000000
      0.2266176779D+04 -0.5389350392D-02
      0.3408701019D+03 -0.4023472139D-01
      0.7736313517D+02 -0.1800818421D+00
      0.2147964494D+02 -0.4682885766D+00
      0.6658943312D+01 -0.4469261716D+00
 S   1 1.00       0.000000000000
      0.8097597567D+00  0.1000000000D+01
 S   1 1.00       0.000000000000
      0.2553077223D+00  0.1000000000D+01
 P   3 1.00       0.000000000000
      0.1772150432D+02  0.6263024876D-01
      0.3863550544D+01  0.3333113848D+00
      0.1048092088D+01  0.7414863831D+00
 P   1 1.00       0.000000000000
      0.2764154441D+00  0.1000000000D+01
 D   1 1.00       0.000000000000
      0.1200000000D+01  0.1000000000D+01
 ****
      2 0
 S   3 1.00       0.000000000000
      0.1301070100D+02  0.3348548481D-01
      0.1962257200D+01  0.2347218709D+00
      0.4445379600D+00  0.8137702853D+00
 S   1 1.00       0.000000000000
      0.1219496200D+00  0.1000000000D+01
 P   1 1.00       0.000000000000
      0.8000000000D+00  0.1000000000D+01
 ****
      3 0
 S   3 1.00       0.000000000000
      0.1301070100D+02  0.3348548481D-01
      0.1962257200D+01  0.2347218709D+00
      0.4445379600D+00  0.8137702853D+00
 S   1 1.00       0.000000000000
      0.1219496200D+00  0.1000000000D+01
 P   1 1.00       0.000000000000
      0.8000000000D+00  0.1000000000D+01
 ****

 ***********************************************************************************************************************************
 *             ATOMIC CENTER             *        ATOMIC ORBITAL       *                     GAUSSIAN FUNCTIONS                    *
 ***********************************************************************************************************************************
 *                                       * FUNCTION    SHELL    SCALE  *                                                           *
 *    ATOM   X-COORD  Y-COORD  Z-COORD   *  NUMBER     TYPE     FACTOR *  EXPONENT    S-COEF      P-COEF      D-COEF      F-COEF   *
 ***********************************************************************************************************************************
 *     O      0.00000  0.00000  0.26337                                                                                            *
+                                                1   S           1.00                                                               
+                                                                      0.226618D+04-.126159D+010.000000D+000.000000D+000.000000D+00 
 *                                                                     0.340870D+03-.227485D+010.000000D+000.000000D+000.000000D+00*
 *                                                                     0.773631D+02-.334796D+010.000000D+000.000000D+000.000000D+00*
 *                                                                     0.214796D+02-.333000D+010.000000D+000.000000D+000.000000D+00*
 *                                                                     0.665894D+01-.132038D+010.000000D+000.000000D+000.000000D+00*
 *                                               2   S           1.00                                                              *
+                                                                      0.809760D+000.608383D+000.000000D+000.000000D+000.000000D+00 
 *                                               3   S           1.00                                                              *
+                                                                      0.255308D+000.255981D+000.000000D+000.000000D+000.000000D+00 
 *                                           4-  6   P           1.00                                                              *
+                                                                      0.177215D+020.000000D+000.324601D+010.000000D+000.000000D+00 
 *                                                                     0.386355D+010.000000D+000.257350D+010.000000D+000.000000D+00*
 *                                                                     0.104809D+010.000000D+000.112084D+010.000000D+000.000000D+00*
 *                                           7-  9   P           1.00                                                              *
+                                                                      0.276415D+000.000000D+000.285689D+000.000000D+000.000000D+00 
 *                                          10- 14   D           1.00                                                              *
+                                                                      0.120000D+010.000000D+000.000000D+000.226452D+010.000000D+00 
 *---------------------------------------------------------------------------------------------------------------------------------*
 *     H     -0.00000  1.84615 -1.05347                                                                                            *
+                                               15   S           1.00                                                               
+                                                                      0.130107D+020.163490D+000.000000D+000.000000D+000.000000D+00 
 *                                                                     0.196226D+010.277352D+000.000000D+000.000000D+000.000000D+00*
 *                                                                     0.444538D+000.315750D+000.000000D+000.000000D+000.000000D+00*
 *                                              16   S           1.00                                                              *
+                                                                      0.121950D+000.147077D+000.000000D+000.000000D+000.000000D+00 
 *                                          17- 19   P           1.00                                                              *
+                                                                      0.800000D+000.000000D+000.107846D+010.000000D+000.000000D+00 
 *---------------------------------------------------------------------------------------------------------------------------------*
 *     H     -0.00000 -1.84615 -1.05347                                                                                            *
+                                               20   S           1.00                                                               
+                                                                      0.130107D+020.163490D+000.000000D+000.000000D+000.000000D+00 
 *                                                                     0.196226D+010.277352D+000.000000D+000.000000D+000.000000D+00*
 *                                                                     0.444538D+000.315750D+000.000000D+000.000000D+000.000000D+00*
 *                                              21   S           1.00                                                              *
+                                                                      0.121950D+000.147077D+000.000000D+000.000000D+000.000000D+00 
 *                                          22- 24   P           1.00                                                              *
+                                                                      0.800000D+000.000000D+000.107846D+010.000000D+000.000000D+00 
 ***********************************************************************************************************************************
 There are    12 symmetry adapted cartesian basis functions of A1  symmetry.
 There are     2 symmetry adapted cartesian basis functions of A2  symmetry.
 There are     4 symmetry adapted cartesian basis functions of B1  symmetry.
 There are     7 symmetry adapted cartesian basis functions of B2  symmetry.
 There are    11 symmetry adapted basis functions of A1  symmetry.
 There are     2 symmetry adapted basis functions of A2  symmetry.
 There are     4 symmetry adapted basis functions of B1  symmetry.
 There are     7 symmetry adapted basis functions of B2  symmetry.
    24 basis functions,    39 primitive gaussians,    25 cartesian basis functions
     5 alpha electrons        5 beta electrons
       nuclear repulsion energy         7.3265305337 Hartrees.
 IExCor=    0 DFT=F Ex=HF Corr=None ExCW=0 ScaHFX=  1.000000
 ScaDFX=  1.000000  1.000000  1.000000  1.000000 ScalE2=  1.000000  1.000000
 IRadAn=      0 IRanWt=     -1 IRanGd=            0 ICorTp=0 IEmpDi=  4
 NAtoms=    3 NActive=    3 NUniq=    2 SFac= 2.25D+00 NAtFMM=   60 NAOKFM=F Big=F
 Integral buffers will be    131072 words long.
 Raffenetti 2 integral format.
 Two-electron integral symmetry is turned on.
 ------------------------------------------------------------------------------
 Polarizable Continuum Model (PCM)
 =================================
 Model                : PCM (using non-symmetric T matrix).
 Atomic radii         : UFF (Universal Force Field).
 Polarization charges : Total charges.
 Charge compensation  : None.
 Solution method      : On-the-fly selection.
 Cavity type          : Scaled VdW (van der Waals Surface) (Alpha=1.100).
 Cavity algorithm     : GePol (No added spheres)
                        Default sphere list used, NSphG=    3.
                        Lebedev-Laikov grids with approx.  5.0 points / Ang**2.
                        Smoothing algorithm: York/Karplus (Gamma=1.0000).
                        Polarization charges: spherical gaussians, with
                                              point-specific exponents (IZeta= 3).
                        Self-potential: point-specific (ISelfS= 7).
                        Self-field    : sphere-specific E.n sum rule (ISelfD= 2).
 Solvent              : Toluene, Eps=   2.374100 Eps(inf)=   2.238315
 ------------------------------------------------------------------------------
 Spheres list:
 ISph  on   Nord     Re0    Alpha      Xe            Ye            Ze
    1   O      1    1.7500  1.100      0.000000      0.000000      0.139369
    2   H      2    1.4430  1.100     -0.000000      0.976939     -0.557475
    3   H      3    1.4430  1.100     -0.000000     -0.976939     -0.557475
 ------------------------------------------------------------------------------
 GePol: Number of generator spheres                  =       3
 GePol: Total number of spheres                      =       3
 GePol: Number of exposed spheres                    =       3 (100.00%)
 GePol: Number of points                             =     412
 GePol: Average weight of points                     =       0.15
 GePol: Minimum weight of points                     =   0.11D-04
 GePol: Maximum weight of points                     =    0.20212
 GePol: Number of points with low weight             =      16
 GePol: Fraction of low-weight points (<1% of avg)   =       3.88%
 GePol: Cavity surface area                          =     59.834 Ang**2
 GePol: Cavity volume                                =     40.969 Ang**3
 Leave Link  301 at Tue Jan  9 18:58:30 2018, MaxMem=  4194304000 cpu:         0.5
 (Enter /home/chemsoft/gaussian/g09e01/g09/l302.exe)
 NPDir=0 NMtPBC=     1 NCelOv=     1 NCel=       1 NClECP=     1 NCelD=      1
         NCelK=      1 NCelE2=     1 NClLst=     1 CellRange=     0.0.
 One-electron integrals computed using PRISM.
 One-electron integral symmetry used in STVInt
   4 Symmetry operations used in ECPInt.
 ECPInt:  NShTT=      78 NPrTT=     272 LenC2=      79 LenP2D=     265.
 LDataN:  DoStor=T MaxTD1= 4 Len=   56
 NBasis=    24 RedAO= T EigKep=  1.04D-01  NBF=    11     2     4     7
 NBsUse=    24 1.00D-06 EigRej= -1.00D+00 NBFU=    11     2     4     7
 Leave Link  302 at Tue Jan  9 18:58:30 2018, MaxMem=  4194304000 cpu:         4.2
 (Enter /home/chemsoft/gaussian/g09e01/g09/l303.exe)
 DipDrv:  MaxL=1.
 Leave Link  303 at Tue Jan  9 18:58:31 2018, MaxMem=  4194304000 cpu:         0.5
 (Enter /home/chemsoft/gaussian/g09e01/g09/l401.exe)
 ExpMin= 1.22D-01 ExpMax= 2.27D+03 ExpMxC= 3.41D+02 IAcc=1 IRadAn=         1 AccDes= 0.00D+00
 Harris functional with IExCor=  205 and IRadAn=       1 diagonalized for initial guess.
 HarFok:  IExCor=  205 AccDes= 0.00D+00 IRadAn=         1 IDoV= 1 UseB2=F ITyADJ=14
 ICtDFT=  3500011 ScaDFX=  1.000000  1.000000  1.000000  1.000000
 FoFCou: FMM=F IPFlag=           0 FMFlag=      100000 FMFlg1=           0
         NFxFlg=           0 DoJE=T BraDBF=F KetDBF=T FulRan=T
         wScrn=  0.000000 ICntrl=     500 IOpCl=  0 I1Cent=   200000004 NGrid=           0
         NMat0=    1 NMatS0=      1 NMatT0=    0 NMatD0=    1 NMtDS0=    0 NMtDT0=    0
 Petite list used in FoFCou.
 Harris En= -75.9854745321986    
 JPrj=0 DoOrth=F DoCkMO=F.
 Initial guess orbital symmetries:
 Alpha Orbitals:
       Occupied  (A1) (A1) (B2) (A1) (B1)
       Virtual   (A1) (B2) (A1) (B2) (A1) (B1) (B2) (A1) (A2) (A1)
                 (B1) (B2) (B2) (A1) (B1) (A2) (A1) (A1) (B2)
 Beta  Orbitals:
       Occupied  (A1) (A1) (B2) (A1) (B1)
       Virtual   (A1) (B2) (A1) (B2) (A1) (B1) (B2) (A1) (A2) (A1)
                 (B1) (B2) (B2) (A1) (B1) (A2) (A1) (A1) (B2)
 The electronic state of the initial guess is 1-A1.
 Initial guess <Sx>= 0.0000 <Sy>= 0.0000 <Sz>= 0.0000 <S**2>=-0.0000 S=-0.0000
 Leave Link  401 at Tue Jan  9 18:58:31 2018, MaxMem=  4194304000 cpu:         3.4
 (Enter /home/chemsoft/gaussian/g09e01/g09/l502.exe)
 UHF open shell SCF:
 Using DIIS extrapolation, IDIIS=  1040.
 Integral symmetry usage will be decided dynamically.
 Keep R1 and R2 ints in memory in symmetry-blocked form, NReq=3108470.
 IVT=        8281 IEndB=        8281 NGot=  4194304000 MDV=  4194269602
 LenX=  4194269602 LenY=  4194268536
 Requested convergence on RMS density matrix=1.00D-08 within  64 cycles.
 Requested convergence on MAX density matrix=1.00D-06.
 Requested convergence on             energy=1.00D-06.
 No special actions if energy rises.
 FoFCou: FMM=F IPFlag=           0 FMFlag=           0 FMFlg1=           0
         NFxFlg=           0 DoJE=F BraDBF=F KetDBF=F FulRan=T
         wScrn=  0.000000 ICntrl=     600 IOpCl=  0 I1Cent=           0 NGrid=           0
         NMat0=    1 NMatS0=    300 NMatT0=    0 NMatD0=    1 NMtDS0=    0 NMtDT0=    0
 Petite list used in FoFCou.

 Cycle   1  Pass 1  IDiag  1:
 Inv3:  Mode=1 IEnd=      509232.
 Iteration    1 A*A^-1 deviation from unit magnitude is 2.66D-15 for    279.
 Iteration    1 A*A^-1 deviation from orthogonality  is 1.82D-15 for    310     20.
 Iteration    1 A^-1*A deviation from unit magnitude is 2.44D-15 for    201.
 Iteration    1 A^-1*A deviation from orthogonality  is 8.09D-16 for    399     98.
 E= -75.8023070961262    
 DIIS: error= 7.53D-02 at cycle   1 NSaved=   1.
 NSaved= 1 IEnMin= 1 EnMin= -75.8023070961262     IErMin= 1 ErrMin= 7.53D-02
 ErrMax= 7.53D-02  0.00D+00 EMaxC= 1.00D-01 BMatC= 4.10D-01 BMatP= 4.10D-01
 IDIUse=3 WtCom= 2.47D-01 WtEn= 7.53D-01
 Coeff-Com:  0.100D+01
 Coeff-En:   0.100D+01
 Coeff:      0.100D+01
 Gap=     0.495 Goal=   None    Shift=    0.000
 Gap=     0.495 Goal=   None    Shift=    0.000
 GapD=    0.495 DampG=2.000 DampE=0.500 DampFc=1.0000 IDamp=-1.
 RMSDP=1.21D-02 MaxDP=1.19D-01              OVMax= 1.49D-01

 Cycle   2  Pass 1  IDiag  1:
 E= -75.8424435457812     Delta-E=       -0.040136449655 Rises=F Damp=F
 DIIS: error= 5.39D-02 at cycle   2 NSaved=   2.
 NSaved= 2 IEnMin= 2 EnMin= -75.8424435457812     IErMin= 2 ErrMin= 5.39D-02
 ErrMax= 5.39D-02  0.00D+00 EMaxC= 1.00D-01 BMatC= 1.93D-01 BMatP= 4.10D-01
 IDIUse=3 WtCom= 4.61D-01 WtEn= 5.39D-01
 Coeff-Com:  0.397D+00 0.603D+00
 Coeff-En:   0.253D+00 0.747D+00
 Coeff:      0.320D+00 0.680D+00
 Gap=     0.627 Goal=   None    Shift=    0.000
 Gap=     0.627 Goal=   None    Shift=    0.000
 RMSDP=6.68D-03 MaxDP=6.01D-02 DE=-4.01D-02 OVMax= 5.93D-02

 Cycle   3  Pass 1  IDiag  1:
 E= -75.8767578601704     Delta-E=       -0.034314314389 Rises=F Damp=F
 DIIS: error= 1.04D-02 at cycle   3 NSaved=   3.
 NSaved= 3 IEnMin= 3 EnMin= -75.8767578601704     IErMin= 3 ErrMin= 1.04D-02
 ErrMax= 1.04D-02  0.00D+00 EMaxC= 1.00D-01 BMatC= 5.39D-03 BMatP= 1.93D-01
 IDIUse=3 WtCom= 8.96D-01 WtEn= 1.04D-01
 Coeff-Com: -0.391D-01 0.992D-01 0.940D+00
 Coeff-En:   0.000D+00 0.000D+00 0.100D+01
 Coeff:     -0.350D-01 0.890D-01 0.946D+00
 Gap=     0.613 Goal=   None    Shift=    0.000
 Gap=     0.613 Goal=   None    Shift=    0.000
 RMSDP=9.87D-04 MaxDP=1.13D-02 DE=-3.43D-02 OVMax= 1.48D-02

 Cycle   4  Pass 1  IDiag  1:
 E= -75.8779993347330     Delta-E=       -0.001241474563 Rises=F Damp=F
 DIIS: error= 2.09D-03 at cycle   4 NSaved=   4.
 NSaved= 4 IEnMin= 4 EnMin= -75.8779993347330     IErMin= 4 ErrMin= 2.09D-03
 ErrMax= 2.09D-03  0.00D+00 EMaxC= 1.00D-01 BMatC= 1.52D-04 BMatP= 5.39D-03
 IDIUse=3 WtCom= 9.79D-01 WtEn= 2.09D-02
 Coeff-Com:  0.627D-02-0.660D-01-0.281D+00 0.134D+01
 Coeff-En:   0.000D+00 0.000D+00 0.000D+00 0.100D+01
 Coeff:      0.614D-02-0.646D-01-0.275D+00 0.133D+01
 Gap=     0.618 Goal=   None    Shift=    0.000
 Gap=     0.618 Goal=   None    Shift=    0.000
 RMSDP=2.86D-04 MaxDP=3.41D-03 DE=-1.24D-03 OVMax= 2.84D-03

 Cycle   5  Pass 1  IDiag  1:
 E= -75.8780469547905     Delta-E=       -0.000047620057 Rises=F Damp=F
 DIIS: error= 3.10D-04 at cycle   5 NSaved=   5.
 NSaved= 5 IEnMin= 5 EnMin= -75.8780469547905     IErMin= 5 ErrMin= 3.10D-04
 ErrMax= 3.10D-04  0.00D+00 EMaxC= 1.00D-01 BMatC= 2.78D-06 BMatP= 1.52D-04
 IDIUse=3 WtCom= 9.97D-01 WtEn= 3.10D-03
 Coeff-Com:  0.827D-03 0.329D-02 0.227D-02-0.201D+00 0.119D+01
 Coeff-En:   0.000D+00 0.000D+00 0.000D+00 0.000D+00 0.100D+01
 Coeff:      0.825D-03 0.328D-02 0.226D-02-0.200D+00 0.119D+01
 Gap=     0.619 Goal=   None    Shift=    0.000
 Gap=     0.619 Goal=   None    Shift=    0.000
 RMSDP=5.59D-05 MaxDP=6.40D-04 DE=-4.76D-05 OVMax= 6.38D-04

 Cycle   6  Pass 1  IDiag  1:
 E= -75.8780484548017     Delta-E=       -0.000001500011 Rises=F Damp=F
 DIIS: error= 4.90D-05 at cycle   6 NSaved=   6.
 NSaved= 6 IEnMin= 6 EnMin= -75.8780484548017     IErMin= 6 ErrMin= 4.90D-05
 ErrMax= 4.90D-05  0.00D+00 EMaxC= 1.00D-01 BMatC= 9.32D-08 BMatP= 2.78D-06
 IDIUse=1 WtCom= 1.00D+00 WtEn= 0.00D+00
 Coeff-Com: -0.331D-03 0.115D-02 0.873D-02-0.281D-02-0.276D+00 0.127D+01
 Coeff:     -0.331D-03 0.115D-02 0.873D-02-0.281D-02-0.276D+00 0.127D+01
 Gap=     0.619 Goal=   None    Shift=    0.000
 Gap=     0.619 Goal=   None    Shift=    0.000
 RMSDP=1.30D-05 MaxDP=1.15D-04 DE=-1.50D-06 OVMax= 1.71D-04

 Cycle   7  Pass 1  IDiag  1:
 E= -75.8780485138810     Delta-E=       -0.000000059079 Rises=F Damp=F
 DIIS: error= 1.07D-05 at cycle   7 NSaved=   7.
 NSaved= 7 IEnMin= 7 EnMin= -75.8780485138810     IErMin= 7 ErrMin= 1.07D-05
 ErrMax= 1.07D-05  0.00D+00 EMaxC= 1.00D-01 BMatC= 4.81D-09 BMatP= 9.32D-08
 IDIUse=1 WtCom= 1.00D+00 WtEn= 0.00D+00
 Coeff-Com:  0.196D-03-0.916D-03-0.604D-02 0.885D-02 0.152D+00-0.841D+00
 Coeff-Com:  0.169D+01
 Coeff:      0.196D-03-0.916D-03-0.604D-02 0.885D-02 0.152D+00-0.841D+00
 Coeff:      0.169D+01
 Gap=     0.619 Goal=   None    Shift=    0.000
 Gap=     0.619 Goal=   None    Shift=    0.000
 RMSDP=3.55D-06 MaxDP=3.59D-05 DE=-5.91D-08 OVMax= 5.67D-05

 Cycle   8  Pass 1  IDiag  1:
 E= -75.8780485190029     Delta-E=       -0.000000005122 Rises=F Damp=F
 DIIS: error= 2.45D-06 at cycle   8 NSaved=   8.
 NSaved= 8 IEnMin= 8 EnMin= -75.8780485190029     IErMin= 8 ErrMin= 2.45D-06
 ErrMax= 2.45D-06  0.00D+00 EMaxC= 1.00D-01 BMatC= 2.64D-10 BMatP= 4.81D-09
 IDIUse=1 WtCom= 1.00D+00 WtEn= 0.00D+00
 Coeff-Com: -0.558D-04 0.329D-03 0.201D-02-0.523D-02-0.356D-01 0.245D+00
 Coeff-Com: -0.694D+00 0.149D+01
 Coeff:     -0.558D-04 0.329D-03 0.201D-02-0.523D-02-0.356D-01 0.245D+00
 Coeff:     -0.694D+00 0.149D+01
 Gap=     0.619 Goal=   None    Shift=    0.000
 Gap=     0.619 Goal=   None    Shift=    0.000
 RMSDP=8.55D-07 MaxDP=7.22D-06 DE=-5.12D-09 OVMax= 1.44D-05

 Cycle   9  Pass 1  IDiag  1:
 E= -75.8780485192583     Delta-E=       -0.000000000255 Rises=F Damp=F
 DIIS: error= 1.39D-07 at cycle   9 NSaved=   9.
 NSaved= 9 IEnMin= 9 EnMin= -75.8780485192583     IErMin= 9 ErrMin= 1.39D-07
 ErrMax= 1.39D-07  0.00D+00 EMaxC= 1.00D-01 BMatC= 2.19D-12 BMatP= 2.64D-10
 IDIUse=1 WtCom= 1.00D+00 WtEn= 0.00D+00
 Coeff-Com:  0.585D-05-0.376D-04-0.233D-03 0.742D-03 0.382D-02-0.302D-01
 Coeff-Com:  0.103D+00-0.314D+00 0.124D+01
 Coeff:      0.585D-05-0.376D-04-0.233D-03 0.742D-03 0.382D-02-0.302D-01
 Coeff:      0.103D+00-0.314D+00 0.124D+01
 Gap=     0.619 Goal=   None    Shift=    0.000
 Gap=     0.619 Goal=   None    Shift=    0.000
 RMSDP=7.36D-08 MaxDP=4.46D-07 DE=-2.55D-10 OVMax= 1.22D-06

 Cycle  10  Pass 1  IDiag  1:
 E= -75.8780485192600     Delta-E=       -0.000000000002 Rises=F Damp=F
 DIIS: error= 2.23D-08 at cycle  10 NSaved=  10.
 NSaved=10 IEnMin=10 EnMin= -75.8780485192600     IErMin=10 ErrMin= 2.23D-08
 ErrMax= 2.23D-08  0.00D+00 EMaxC= 1.00D-01 BMatC= 3.97D-14 BMatP= 2.19D-12
 IDIUse=1 WtCom= 1.00D+00 WtEn= 0.00D+00
 Coeff-Com: -0.480D-06 0.407D-05 0.251D-04-0.117D-03-0.248D-03 0.320D-02
 Coeff-Com: -0.137D-01 0.486D-01-0.259D+00 0.122D+01
 Coeff:     -0.480D-06 0.407D-05 0.251D-04-0.117D-03-0.248D-03 0.320D-02
 Coeff:     -0.137D-01 0.486D-01-0.259D+00 0.122D+01
 Gap=     0.619 Goal=   None    Shift=    0.000
 Gap=     0.619 Goal=   None    Shift=    0.000
 RMSDP=7.51D-09 MaxDP=5.13D-08 DE=-1.73D-12 OVMax= 1.05D-07

 Error on total polarization charges =  0.00147
 SCF Done:  E(UHF) =  -75.8780485193     A.U. after   10 cycles
            NFock= 10  Conv=0.75D-08     -V/T= 2.0092
 <Sx>= 0.0000 <Sy>= 0.0000 <Sz>= 0.0000 <S**2>=-0.0000 S=-0.0000
 <L.S>= 0.000000000000E+00
 KE= 7.518431133806D+01 PE=-1.948202585617D+02 EE= 3.643136817065D+01
 Annihilation of the first spin contaminant:
 S**2 before annihilation    -0.0000,   after     0.0000
 Leave Link  502 at Tue Jan  9 18:58:32 2018, MaxMem=  4194304000 cpu:         8.7
 (Enter /home/chemsoft/gaussian/g09e01/g09/l508.exe)
 QCSCF skips out because SCF is already converged.
 Leave Link  508 at Tue Jan  9 18:58:32 2018, MaxMem=  4194304000 cpu:         0.0
 (Enter /home/chemsoft/gaussian/g09e01/g09/l801.exe)
 ExpMin= 1.22D-01 ExpMax= 2.27D+03 ExpMxC= 3.41D+02 IAcc=3 IRadAn=         5 AccDes= 0.00D+00
 HarFok:  IExCor=  205 AccDes= 0.00D+00 IRadAn=         5 IDoV=-2 UseB2=F ITyADJ=14
 ICtDFT= 12500011 ScaDFX=  1.000000  1.000000  1.000000  1.000000
 Largest valence mixing into a core orbital is  6.83D-05
 Largest core mixing into a valence orbital is  2.06D-05
 Largest valence mixing into a core orbital is  6.83D-05
 Largest core mixing into a valence orbital is  2.06D-05
 Range of M.O.s used for correlation:     2    24
 NBasis=    24 NAE=     5 NBE=     5 NFC=     1 NFV=     0
 NROrb=     23 NOA=     4 NOB=     4 NVA=    19 NVB=    19
 Leave Link  801 at Tue Jan  9 18:58:33 2018, MaxMem=  4194304000 cpu:         1.3
 (Enter /home/chemsoft/gaussian/g09e01/g09/l804.exe)
 Open-shell transformation, MDV=  4194304000 ITran=5 ISComp=1.
 Semi-Direct transformation.
 ModeAB=           4 MOrb=            23 LenV=    4194133031
 LASXX=        34981 LTotXX=       34981 LenRXX=      111157
 LTotAB=       76176 MaxLAS=       69552 LenRXY=           0
 NonZer=      146138 LenScr=      785920 LnRSAI=      133308
 LnScr1=      785920 LExtra=           0 Total=      1816305
 MaxDsk=          -1 SrtSym=           T ITran=            5
 DoSDTr:  NPSUse=  8
 JobTyp=1 Pass  1:  I=   1 to  23.
 (rs|ai) integrals will be sorted in core.
 Complete sort for first half transformation.
 First half transformation complete.
 Begin second half transformation for I=  10.
 Begin second half transformation for I=  20.
 Complete sort for second half transformation.
 Second half transformation complete.
 ModeAB=           4 MOrb=            23 LenV=    4194133031
 LASXX=        34981 LTotXX=       34981 LenRXX=       34981
 LTotAB=           0 MaxLAS=       69552 LenRXY=           0
 NonZer=       69962 LenScr=      785920 LnRSAI=      133308
 LnScr1=      785920 LExtra=           0 Total=      1740129
 MaxDsk=          -1 SrtSym=           T ITran=            5
 DoSDTr:  NPSUse=  8
 JobTyp=2 Pass  1:  I=   1 to  23.
 (rs|ai) integrals will be sorted in core.
 Complete sort for first half transformation.
 First half transformation complete.
 Begin second half transformation for I=  10.
 Begin second half transformation for I=  20.
 Complete sort for second half transformation.
 Second half transformation complete.
 Spin components of T(2) and E(2):
     alpha-alpha T2 =       0.7544576245D-02 E2=     -0.2649962106D-01
     alpha-beta  T2 =       0.5060440497D-01 E2=     -0.1650050936D+00
     beta-beta   T2 =       0.7544576245D-02 E2=     -0.2649962106D-01
 ANorm=    0.1032324347D+01
 E2 =    -0.2180043357D+00 EUMP2 =    -0.76096052854972D+02
 (S**2,0)=  0.00000D+00           (S**2,1)=  0.00000D+00
 E(PUHF)=      -0.75878048519D+02        E(PMP2)=      -0.76096052855D+02
 Leave Link  804 at Tue Jan  9 18:58:33 2018, MaxMem=  4194304000 cpu:         1.2
 (Enter /home/chemsoft/gaussian/g09e01/g09/l916.exe)
 CIDS:  MDV=  4194304000.
 Frozen-core window:  NFC=   1 NFV=   0.
 IFCWin=0 IBDFC=1 NFBD=     0     0 NFCmp=     0     0 NFFFC=     0     0
 Using original routines for 1st iteration, S=F.
 Using DO4UQ or CC4UQ for 2nd and later iterations.
 MP4(SDTQ)
 =========
 E(PMP3)=      -0.76100149338D+02
 MP4(D)= -0.57508472D-02
 MP4(S)= -0.16927373D-02
 MP4(R+Q)=  0.22765880D-02
 Time for triples=        0.15 seconds.
 MP4(T)=   -0.43045646D-02
 E3=       -0.40964826D-02        EUMP3=      -0.76100149338D+02
 E4(DQ)=   -0.34742592D-02        UMP4(DQ)=   -0.76103623597D+02
 E4(SDQ)=  -0.51669965D-02        UMP4(SDQ)=  -0.76105316334D+02
 E4(SDTQ)= -0.94715611D-02        UMP4(SDTQ)= -0.76109620899D+02
 VARIATIONAL ENERGIES WITH THE FIRST-ORDER WAVEFUNCTION:
 E(VAR1)=  -0.76086458166D+02     E(CISD,4)=  -0.76093271442D+02
 Largest amplitude= 5.12D-02

 S**2, projected HF & approx projected MPn energies after annihilation of
 unwanted spin states (see manual for definitions):

 spins       (S**2,0) (S**2,1)    PUHF        PMP2        PMP3        PMP4
 annihilated
 s+1         0.00000  0.00000  -75.878049  -76.096053  -76.100149  -76.109621
 s+1,s+2     0.00000  0.00000  -75.878049  -76.096053  -76.100149  -76.109621
 s+1 to s+3  0.00000  0.00000  -75.878049  -76.096053  -76.100149  -76.109621
 s+1 to s+4  0.00000  0.00000  -75.878049  -76.096053  -76.100149  -76.109621

 Leave Link  916 at Tue Jan  9 18:58:33 2018, MaxMem=  4194304000 cpu:         3.5
 (Enter /home/chemsoft/gaussian/g09e01/g09/l915.exe)
 UMP5:  MDV=4194304000.
 Frozen-core window:  NFC=   1 NFV=   0.
 IFCWin=0 IBDFC=1 NFBD=     0     0 NFCmp=     0     0 NFFFC=     0     0
 MP5 
 ===
 Saving the triples amplitudes on disk, using     163704 words of disk space.
 Time for triples=       48.22 seconds.
 Disk space used for TT scratch files  :       438976 words
 E5TTaaa =  -0.30622694D-06
 E5TTaab =  -0.19640928D-03
 E5TTabb =  -0.19640928D-03
 E5TTbbb =  -0.30622694D-06
 E5TT     =  -0.39343101D-03
 E5TQ2    =   0.65723227D-03
 EQQ2     =  -0.13332263D-02
 EMP5QQ(I)      =   0.55233992183D-03
 Time for triples=        0.28 seconds.
 EMP5DT         =   0.13334659980D-03
 EMP5(ST+TQ(I)) =   0.64749777495D-03
 EMP5DQ         =   0.10513094718D-02
 EMP5DD         =  -0.16886498777D-02
 EMP5SS         =  -0.37375588362D-03
 EMP5SD         =   0.47508414181D-04
 DEMP5 =  -0.69982860384D-03 MP5 =  -0.76110320727D+02
 Pade Approximates from MP energies 
 [1,0] =  -0.76100227788D+02
 [1,1] =  -0.76092930823D+02
 [2,1] =  -0.76110841952D+02
 Leave Link  915 at Tue Jan  9 18:58:42 2018, MaxMem=  4194304000 cpu:        55.0
 (Enter /home/chemsoft/gaussian/g09e01/g09/l601.exe)
 Copying SCF densities to generalized density rwf, IOpCl= 1 IROHF=0.

 **********************************************************************

            Population analysis using the SCF density.

 **********************************************************************

 Orbital symmetries:
 Alpha Orbitals:
       Occupied  (A1) (A1) (B2) (A1) (B1)
       Virtual   (A1) (B2) (A1) (B2) (A1) (B1) (B2) (A1) (A2) (A1)
                 (B1) (B2) (B2) (A1) (B1) (A2) (A1) (A1) (B2)
 Beta  Orbitals:
       Occupied  (A1) (A1) (B2) (A1) (B1)
       Virtual   (A1) (B2) (A1) (B2) (A1) (B1) (B2) (A1) (A2) (A1)
                 (B1) (B2) (B2) (A1) (B1) (A2) (A1) (A1) (B2)
 The electronic state is 1-A1.
 Alpha  occ. eigenvalues --  -20.57736  -1.22576  -0.59867  -0.51973  -0.48725
 Alpha virt. eigenvalues --    0.13191   0.21103   0.67937   0.68399   1.17730
 Alpha virt. eigenvalues --    1.18198   1.29957   1.35201   1.57182   1.75759
 Alpha virt. eigenvalues --    1.79509   1.84037   2.08427   2.19359   3.12751
 Alpha virt. eigenvalues --    3.17958   3.22842   3.66188   3.92119
  Beta  occ. eigenvalues --  -20.57736  -1.22576  -0.59867  -0.51973  -0.48725
  Beta virt. eigenvalues --    0.13191   0.21103   0.67937   0.68399   1.17730
  Beta virt. eigenvalues --    1.18198   1.29957   1.35201   1.57182   1.75759
  Beta virt. eigenvalues --    1.79509   1.84037   2.08427   2.19359   3.12751
  Beta virt. eigenvalues --    3.17958   3.22842   3.66188   3.92119
     Alpha Molecular Orbital Coefficients:
                           1         2         3         4         5
                        (A1)--O   (A1)--O   (B2)--O   (A1)--O   (B1)--O
     Eigenvalues --   -20.57736  -1.22576  -0.59867  -0.51973  -0.48725
   1 1   O  1S          0.99078   0.28882   0.00000   0.07654   0.00000
   2        2S         -0.03127   0.58249   0.00000   0.16048   0.00000
   3        3S          0.01223   0.40286   0.00000   0.23236   0.00000
   4        4PX         0.00000   0.00000   0.00000   0.00000   0.63973
   5        4PY         0.00000   0.00000   0.46589   0.00000   0.00000
   6        4PZ         0.00162  -0.03978   0.00000   0.53138   0.00000
   7        5PX         0.00000   0.00000   0.00000   0.00000   0.50309
   8        5PY         0.00000   0.00000   0.28935   0.00000   0.00000
   9        5PZ        -0.00157  -0.01500   0.00000   0.39945   0.00000
  10        6D 0        0.00006   0.00069   0.00000  -0.01372   0.00000
  11        6D+1        0.00000   0.00000   0.00000   0.00000  -0.01378
  12        6D-1        0.00000   0.00000  -0.02216   0.00000   0.00000
  13        6D+2       -0.00012  -0.00371   0.00000   0.00606   0.00000
  14        6D-2        0.00000   0.00000   0.00000   0.00000   0.00000
  15 2   H  1S         -0.00048   0.11573   0.28111  -0.19498   0.00000
  16        2S         -0.00173   0.01027   0.12638  -0.09466   0.00000
  17        3PX         0.00000   0.00000   0.00000   0.00000   0.01932
  18        3PY        -0.00041  -0.01868  -0.02252   0.02215   0.00000
  19        3PZ         0.00044   0.01133   0.02309   0.00186   0.00000
  20 3   H  1S         -0.00048   0.11573  -0.28111  -0.19498   0.00000
  21        2S         -0.00173   0.01027  -0.12638  -0.09466   0.00000
  22        3PX         0.00000   0.00000   0.00000   0.00000   0.01932
  23        3PY         0.00041   0.01868  -0.02252  -0.02215   0.00000
  24        3PZ         0.00044   0.01133  -0.02309   0.00186   0.00000
                           6         7         8         9        10
                        (A1)--V   (B2)--V   (A1)--V   (B2)--V   (A1)--V
     Eigenvalues --     0.13191   0.21103   0.67937   0.68399   1.17730
   1 1   O  1S          0.08994   0.00000  -0.07796   0.00000  -0.16713
   2        2S          0.12046   0.00000  -0.31815   0.00000  -0.81706
   3        3S          0.78589   0.00000   0.47738   0.00000   0.72587
   4        4PX         0.00000   0.00000   0.00000   0.00000   0.00000
   5        4PY         0.00000  -0.35679   0.00000  -0.28210   0.00000
   6        4PZ        -0.26538   0.00000   0.26769   0.00000  -0.77925
   7        5PX         0.00000   0.00000   0.00000   0.00000   0.00000
   8        5PY         0.00000  -0.63192   0.00000  -0.14868   0.00000
   9        5PZ        -0.40925   0.00000   0.05089   0.00000   0.85641
  10        6D 0        0.00652   0.00000  -0.00852   0.00000  -0.01668
  11        6D+1        0.00000   0.00000   0.00000   0.00000   0.00000
  12        6D-1        0.00000   0.00273   0.00000  -0.07230   0.00000
  13        6D+2        0.00156   0.00000  -0.06132   0.00000  -0.01547
  14        6D-2        0.00000   0.00000   0.00000   0.00000   0.00000
  15 2   H  1S         -0.14012   0.10791   0.89773   0.93740   0.10293
  16        2S         -0.74396   1.00330  -0.73516  -0.92363  -0.05607
  17        3PX         0.00000   0.00000   0.00000   0.00000   0.00000
  18        3PY        -0.00142  -0.00056   0.10778   0.01277  -0.00410
  19        3PZ        -0.00595  -0.00616  -0.01123  -0.07248   0.16340
  20 3   H  1S         -0.14012  -0.10791   0.89773  -0.93740   0.10293
  21        2S         -0.74396  -1.00330  -0.73516   0.92363  -0.05607
  22        3PX         0.00000   0.00000   0.00000   0.00000   0.00000
  23        3PY         0.00142  -0.00056  -0.10778   0.01277   0.00410
  24        3PZ        -0.00595   0.00616  -0.01123   0.07248   0.16340
                          11        12        13        14        15
                        (B1)--V   (B2)--V   (A1)--V   (A2)--V   (A1)--V
     Eigenvalues --     1.18198   1.29957   1.35201   1.57182   1.75759
   1 1   O  1S          0.00000   0.00000  -0.25587   0.00000   0.09881
   2        2S          0.00000   0.00000  -1.55438   0.00000   0.61845
   3        3S          0.00000   0.00000   2.20575   0.00000  -0.85910
   4        4PX        -0.93651   0.00000   0.00000   0.00000   0.00000
   5        4PY         0.00000  -0.83706   0.00000   0.00000   0.00000
   6        4PZ         0.00000   0.00000   0.31963   0.00000  -0.44420
   7        5PX         0.94506   0.00000   0.00000   0.00000   0.00000
   8        5PY         0.00000   1.45673   0.00000   0.00000   0.00000
   9        5PZ         0.00000   0.00000  -0.63213   0.00000   0.91432
  10        6D 0        0.00000   0.00000   0.05308   0.00000   0.19330
  11        6D+1       -0.01023   0.00000   0.00000   0.00000   0.00000
  12        6D-1        0.00000   0.05066   0.00000   0.00000   0.00000
  13        6D+2        0.00000   0.00000   0.07341   0.00000   0.02247
  14        6D-2        0.00000   0.00000   0.00000   0.17172   0.00000
  15 2   H  1S          0.00000  -0.24543  -0.34101   0.00000   0.39304
  16        2S          0.00000  -0.47711  -0.37748   0.00000   0.05514
  17        3PX         0.12927   0.00000   0.00000   0.67600   0.00000
  18        3PY         0.00000   0.31280  -0.03673   0.00000  -0.29332
  19        3PZ         0.00000   0.00088  -0.31007   0.00000  -0.52553
  20 3   H  1S          0.00000   0.24543  -0.34101   0.00000   0.39304
  21        2S          0.00000   0.47711  -0.37748   0.00000   0.05514
  22        3PX         0.12927   0.00000   0.00000  -0.67600   0.00000
  23        3PY         0.00000   0.31280   0.03673   0.00000   0.29332
  24        3PZ         0.00000  -0.00088  -0.31007   0.00000  -0.52553
                          16        17        18        19        20
                        (B1)--V   (B2)--V   (B2)--V   (A1)--V   (B1)--V
     Eigenvalues --     1.79509   1.84037   2.08427   2.19359   3.12751
   1 1   O  1S          0.00000   0.00000   0.00000   0.04954   0.00000
   2        2S          0.00000   0.00000   0.00000  -0.11458   0.00000
   3        3S          0.00000   0.00000   0.00000   1.09675   0.00000
   4        4PX         0.24034   0.00000   0.00000   0.00000   0.05464
   5        4PY         0.00000  -0.37392  -0.42774   0.00000   0.00000
   6        4PZ         0.00000   0.00000   0.00000  -0.23436   0.00000
   7        5PX        -0.59446   0.00000   0.00000   0.00000  -0.14643
   8        5PY         0.00000   0.81558  -0.34539   0.00000   0.00000
   9        5PZ         0.00000   0.00000   0.00000  -0.49468   0.00000
  10        6D 0        0.00000   0.00000   0.00000  -0.10905   0.00000
  11        6D+1       -0.17075   0.00000   0.00000   0.00000   0.99533
  12        6D-1        0.00000   0.00277  -0.18634   0.00000   0.00000
  13        6D+2        0.00000   0.00000   0.00000   0.25178   0.00000
  14        6D-2        0.00000   0.00000   0.00000   0.00000   0.00000
  15 2   H  1S          0.00000  -0.29455   0.04930  -0.28306   0.00000
  16        2S          0.00000  -0.03654   0.33086  -0.27479   0.00000
  17        3PX         0.71527   0.00000   0.00000   0.00000   0.23315
  18        3PY         0.00000  -0.43078  -0.51025   0.76644   0.00000
  19        3PZ         0.00000  -0.55228   0.56367  -0.30735   0.00000
  20 3   H  1S          0.00000   0.29455  -0.04930  -0.28306   0.00000
  21        2S          0.00000   0.03654  -0.33086  -0.27479   0.00000
  22        3PX         0.71527   0.00000   0.00000   0.00000   0.23315
  23        3PY         0.00000  -0.43078  -0.51025  -0.76644   0.00000
  24        3PZ         0.00000   0.55228  -0.56367  -0.30735   0.00000
                          21        22        23        24
                        (A2)--V   (A1)--V   (A1)--V   (B2)--V
     Eigenvalues --     3.17958   3.22842   3.66188   3.92119
   1 1   O  1S          0.00000  -0.00518  -0.00211   0.00000
   2        2S          0.00000  -0.09040  -0.35700   0.00000
   3        3S          0.00000   0.24653   1.24233   0.00000
   4        4PX         0.00000   0.00000   0.00000   0.00000
   5        4PY         0.00000   0.00000   0.00000  -0.06077
   6        4PZ         0.00000   0.06275  -0.05575   0.00000
   7        5PX         0.00000   0.00000   0.00000   0.00000
   8        5PY         0.00000   0.00000   0.00000  -0.83438
   9        5PZ         0.00000  -0.28043  -0.58791   0.00000
  10        6D 0        0.00000   0.99369   0.02492   0.00000
  11        6D+1        0.00000   0.00000   0.00000   0.00000
  12        6D-1        0.00000   0.00000   0.00000   1.15594
  13        6D+2        0.00000   0.05022  -1.06771   0.00000
  14        6D-2        1.00289   0.00000   0.00000   0.00000
  15 2   H  1S          0.00000  -0.11904  -0.52236   0.49617
  16        2S          0.00000  -0.03093  -0.18388   0.20948
  17        3PX        -0.25079   0.00000   0.00000   0.00000
  18        3PY         0.00000   0.24600   0.48602  -0.47422
  19        3PZ         0.00000   0.20633  -0.34732   0.37245
  20 3   H  1S          0.00000  -0.11904  -0.52236  -0.49617
  21        2S          0.00000  -0.03093  -0.18388  -0.20948
  22        3PX         0.25079   0.00000   0.00000   0.00000
  23        3PY         0.00000  -0.24600  -0.48602  -0.47422
  24        3PZ         0.00000   0.20633  -0.34732  -0.37245
     Beta Molecular Orbital Coefficients:
                           1         2         3         4         5
                        (A1)--O   (A1)--O   (B2)--O   (A1)--O   (B1)--O
     Eigenvalues --   -20.57736  -1.22576  -0.59867  -0.51973  -0.48725
   1 1   O  1S          0.99078   0.28882   0.00000   0.07654   0.00000
   2        2S         -0.03127   0.58249   0.00000   0.16048   0.00000
   3        3S          0.01223   0.40286   0.00000   0.23236   0.00000
   4        4PX         0.00000   0.00000   0.00000   0.00000   0.63973
   5        4PY         0.00000   0.00000   0.46589   0.00000   0.00000
   6        4PZ         0.00162  -0.03978   0.00000   0.53138   0.00000
   7        5PX         0.00000   0.00000   0.00000   0.00000   0.50309
   8        5PY         0.00000   0.00000   0.28935   0.00000   0.00000
   9        5PZ        -0.00157  -0.01500   0.00000   0.39945   0.00000
  10        6D 0        0.00006   0.00069   0.00000  -0.01372   0.00000
  11        6D+1        0.00000   0.00000   0.00000   0.00000  -0.01378
  12        6D-1        0.00000   0.00000  -0.02216   0.00000   0.00000
  13        6D+2       -0.00012  -0.00371   0.00000   0.00606   0.00000
  14        6D-2        0.00000   0.00000   0.00000   0.00000   0.00000
  15 2   H  1S         -0.00048   0.11573   0.28111  -0.19498   0.00000
  16        2S         -0.00173   0.01027   0.12638  -0.09466   0.00000
  17        3PX         0.00000   0.00000   0.00000   0.00000   0.01932
  18        3PY        -0.00041  -0.01868  -0.02252   0.02215   0.00000
  19        3PZ         0.00044   0.01133   0.02309   0.00186   0.00000
  20 3   H  1S         -0.00048   0.11573  -0.28111  -0.19498   0.00000
  21        2S         -0.00173   0.01027  -0.12638  -0.09466   0.00000
  22        3PX         0.00000   0.00000   0.00000   0.00000   0.01932
  23        3PY         0.00041   0.01868  -0.02252  -0.02215   0.00000
  24        3PZ         0.00044   0.01133  -0.02309   0.00186   0.00000
                           6         7         8         9        10
                        (A1)--V   (B2)--V   (A1)--V   (B2)--V   (A1)--V
     Eigenvalues --     0.13191   0.21103   0.67937   0.68399   1.17730
   1 1   O  1S          0.08994   0.00000  -0.07796   0.00000  -0.16713
   2        2S          0.12046   0.00000  -0.31815   0.00000  -0.81706
   3        3S          0.78589   0.00000   0.47738   0.00000   0.72587
   4        4PX         0.00000   0.00000   0.00000   0.00000   0.00000
   5        4PY         0.00000  -0.35679   0.00000  -0.28210   0.00000
   6        4PZ        -0.26538   0.00000   0.26769   0.00000  -0.77925
   7        5PX         0.00000   0.00000   0.00000   0.00000   0.00000
   8        5PY         0.00000  -0.63192   0.00000  -0.14868   0.00000
   9        5PZ        -0.40925   0.00000   0.05089   0.00000   0.85641
  10        6D 0        0.00652   0.00000  -0.00852   0.00000  -0.01668
  11        6D+1        0.00000   0.00000   0.00000   0.00000   0.00000
  12        6D-1        0.00000   0.00273   0.00000  -0.07230   0.00000
  13        6D+2        0.00156   0.00000  -0.06132   0.00000  -0.01547
  14        6D-2        0.00000   0.00000   0.00000   0.00000   0.00000
  15 2   H  1S         -0.14012   0.10791   0.89773   0.93740   0.10293
  16        2S         -0.74396   1.00330  -0.73516  -0.92363  -0.05607
  17        3PX         0.00000   0.00000   0.00000   0.00000   0.00000
  18        3PY        -0.00142  -0.00056   0.10778   0.01277  -0.00410
  19        3PZ        -0.00595  -0.00616  -0.01123  -0.07248   0.16340
  20 3   H  1S         -0.14012  -0.10791   0.89773  -0.93740   0.10293
  21        2S         -0.74396  -1.00330  -0.73516   0.92363  -0.05607
  22        3PX         0.00000   0.00000   0.00000   0.00000   0.00000
  23        3PY         0.00142  -0.00056  -0.10778   0.01277   0.00410
  24        3PZ        -0.00595   0.00616  -0.01123   0.07248   0.16340
                          11        12        13        14        15
                        (B1)--V   (B2)--V   (A1)--V   (A2)--V   (A1)--V
     Eigenvalues --     1.18198   1.29957   1.35201   1.57182   1.75759
   1 1   O  1S          0.00000   0.00000  -0.25587   0.00000   0.09881
   2        2S          0.00000   0.00000  -1.55438   0.00000   0.61845
   3        3S          0.00000   0.00000   2.20575   0.00000  -0.85910
   4        4PX        -0.93651   0.00000   0.00000   0.00000   0.00000
   5        4PY         0.00000  -0.83706   0.00000   0.00000   0.00000
   6        4PZ         0.00000   0.00000   0.31963   0.00000  -0.44420
   7        5PX         0.94506   0.00000   0.00000   0.00000   0.00000
   8        5PY         0.00000   1.45673   0.00000   0.00000   0.00000
   9        5PZ         0.00000   0.00000  -0.63213   0.00000   0.91432
  10        6D 0        0.00000   0.00000   0.05308   0.00000   0.19330
  11        6D+1       -0.01023   0.00000   0.00000   0.00000   0.00000
  12        6D-1        0.00000   0.05066   0.00000   0.00000   0.00000
  13        6D+2        0.00000   0.00000   0.07341   0.00000   0.02247
  14        6D-2        0.00000   0.00000   0.00000   0.17172   0.00000
  15 2   H  1S          0.00000  -0.24543  -0.34101   0.00000   0.39304
  16        2S          0.00000  -0.47711  -0.37748   0.00000   0.05514
  17        3PX         0.12927   0.00000   0.00000   0.67600   0.00000
  18        3PY         0.00000   0.31280  -0.03673   0.00000  -0.29332
  19        3PZ         0.00000   0.00088  -0.31007   0.00000  -0.52553
  20 3   H  1S          0.00000   0.24543  -0.34101   0.00000   0.39304
  21        2S          0.00000   0.47711  -0.37748   0.00000   0.05514
  22        3PX         0.12927   0.00000   0.00000  -0.67600   0.00000
  23        3PY         0.00000   0.31280   0.03673   0.00000   0.29332
  24        3PZ         0.00000  -0.00088  -0.31007   0.00000  -0.52553
                          16        17        18        19        20
                        (B1)--V   (B2)--V   (B2)--V   (A1)--V   (B1)--V
     Eigenvalues --     1.79509   1.84037   2.08427   2.19359   3.12751
   1 1   O  1S          0.00000   0.00000   0.00000   0.04954   0.00000
   2        2S          0.00000   0.00000   0.00000  -0.11458   0.00000
   3        3S          0.00000   0.00000   0.00000   1.09675   0.00000
   4        4PX         0.24034   0.00000   0.00000   0.00000   0.05464
   5        4PY         0.00000  -0.37392  -0.42774   0.00000   0.00000
   6        4PZ         0.00000   0.00000   0.00000  -0.23436   0.00000
   7        5PX        -0.59446   0.00000   0.00000   0.00000  -0.14643
   8        5PY         0.00000   0.81558  -0.34539   0.00000   0.00000
   9        5PZ         0.00000   0.00000   0.00000  -0.49468   0.00000
  10        6D 0        0.00000   0.00000   0.00000  -0.10905   0.00000
  11        6D+1       -0.17075   0.00000   0.00000   0.00000   0.99533
  12        6D-1        0.00000   0.00277  -0.18634   0.00000   0.00000
  13        6D+2        0.00000   0.00000   0.00000   0.25178   0.00000
  14        6D-2        0.00000   0.00000   0.00000   0.00000   0.00000
  15 2   H  1S          0.00000  -0.29455   0.04930  -0.28306   0.00000
  16        2S          0.00000  -0.03654   0.33086  -0.27479   0.00000
  17        3PX         0.71527   0.00000   0.00000   0.00000   0.23315
  18        3PY         0.00000  -0.43078  -0.51025   0.76644   0.00000
  19        3PZ         0.00000  -0.55228   0.56367  -0.30735   0.00000
  20 3   H  1S          0.00000   0.29455  -0.04930  -0.28306   0.00000
  21        2S          0.00000   0.03654  -0.33086  -0.27479   0.00000
  22        3PX         0.71527   0.00000   0.00000   0.00000   0.23315
  23        3PY         0.00000  -0.43078  -0.51025  -0.76644   0.00000
  24        3PZ         0.00000   0.55228  -0.56367  -0.30735   0.00000
                          21        22        23        24
                        (A2)--V   (A1)--V   (A1)--V   (B2)--V
     Eigenvalues --     3.17958   3.22842   3.66188   3.92119
   1 1   O  1S          0.00000  -0.00518  -0.00211   0.00000
   2        2S          0.00000  -0.09040  -0.35700   0.00000
   3        3S          0.00000   0.24653   1.24233   0.00000
   4        4PX         0.00000   0.00000   0.00000   0.00000
   5        4PY         0.00000   0.00000   0.00000  -0.06077
   6        4PZ         0.00000   0.06275  -0.05575   0.00000
   7        5PX         0.00000   0.00000   0.00000   0.00000
   8        5PY         0.00000   0.00000   0.00000  -0.83438
   9        5PZ         0.00000  -0.28043  -0.58791   0.00000
  10        6D 0        0.00000   0.99369   0.02492   0.00000
  11        6D+1        0.00000   0.00000   0.00000   0.00000
  12        6D-1        0.00000   0.00000   0.00000   1.15594
  13        6D+2        0.00000   0.05022  -1.06771   0.00000
  14        6D-2        1.00289   0.00000   0.00000   0.00000
  15 2   H  1S          0.00000  -0.11904  -0.52236   0.49617
  16        2S          0.00000  -0.03093  -0.18388   0.20948
  17        3PX        -0.25079   0.00000   0.00000   0.00000
  18        3PY         0.00000   0.24600   0.48602  -0.47422
  19        3PZ         0.00000   0.20633  -0.34732   0.37245
  20 3   H  1S          0.00000  -0.11904  -0.52236  -0.49617
  21        2S          0.00000  -0.03093  -0.18388  -0.20948
  22        3PX         0.25079   0.00000   0.00000   0.00000
  23        3PY         0.00000  -0.24600  -0.48602  -0.47422
  24        3PZ         0.00000   0.20633  -0.34732  -0.37245
     Alpha Density Matrix:
                           1         2         3         4         5
   1 1   O  1S          1.07092
   2        2S          0.14953   0.36603
   3        3S          0.14626   0.27157   0.21644
   4        4PX         0.00000   0.00000   0.00000   0.40925
   5        4PY         0.00000   0.00000   0.00000  -0.00000   0.21705
   6        4PZ         0.03079   0.06205   0.10747   0.00000   0.00000
   7        5PX         0.00000   0.00000   0.00000   0.32184  -0.00000
   8        5PY         0.00000   0.00000   0.00000  -0.00000   0.13480
   9        5PZ         0.02468   0.05541   0.08675   0.00000   0.00000
  10        6D 0       -0.00079  -0.00180  -0.00291  -0.00000   0.00000
  11        6D+1       -0.00000  -0.00000   0.00000  -0.00882   0.00000
  12        6D-1       -0.00000  -0.00000  -0.00000   0.00000  -0.01032
  13        6D+2       -0.00073  -0.00119  -0.00009   0.00000   0.00000
  14        6D-2       -0.00000  -0.00000  -0.00000  -0.00000   0.00000
  15 2   H  1S          0.01803   0.03614   0.00131  -0.00000   0.13097
  16        2S         -0.00600  -0.00916  -0.01788  -0.00000   0.05888
  17        3PX         0.00000   0.00000   0.00000   0.01236   0.00000
  18        3PY        -0.00410  -0.00731  -0.00238   0.00000  -0.01049
  19        3PZ         0.00385   0.00688   0.00500  -0.00000   0.01076
  20 3   H  1S          0.01803   0.03614   0.00131   0.00000  -0.13097
  21        2S         -0.00600  -0.00916  -0.01788   0.00000  -0.05888
  22        3PX        -0.00000  -0.00000  -0.00000   0.01236   0.00000
  23        3PY         0.00410   0.00731   0.00238   0.00000  -0.01049
  24        3PZ         0.00385   0.00688   0.00500   0.00000  -0.01076
                           6         7         8         9        10
   6        4PZ         0.28394
   7        5PX         0.00000   0.25310
   8        5PY         0.00000  -0.00000   0.08372
   9        5PZ         0.21285   0.00000   0.00000   0.15978
  10        6D 0       -0.00732  -0.00000   0.00000  -0.00549   0.00019
  11        6D+1       -0.00000  -0.00693   0.00000  -0.00000   0.00000
  12        6D-1        0.00000   0.00000  -0.00641  -0.00000  -0.00000
  13        6D+2        0.00337   0.00000   0.00000   0.00248  -0.00009
  14        6D-2       -0.00000  -0.00000  -0.00000  -0.00000   0.00000
  15 2   H  1S         -0.10821  -0.00000   0.08134  -0.07962   0.00276
  16        2S         -0.05071  -0.00000   0.03657  -0.03796   0.00131
  17        3PX        -0.00000   0.00972   0.00000  -0.00000   0.00000
  18        3PY         0.01251   0.00000  -0.00652   0.00913  -0.00032
  19        3PZ         0.00054  -0.00000   0.00668   0.00057  -0.00002
  20 3   H  1S         -0.10821   0.00000  -0.08134  -0.07962   0.00276
  21        2S         -0.05071   0.00000  -0.03657  -0.03796   0.00131
  22        3PX         0.00000   0.00972   0.00000   0.00000  -0.00000
  23        3PY        -0.01251   0.00000  -0.00652  -0.00913   0.00032
  24        3PZ         0.00054   0.00000  -0.00668   0.00057  -0.00002
                          11        12        13        14        15
  11        6D+1        0.00019
  12        6D-1       -0.00000   0.00049
  13        6D+2        0.00000  -0.00000   0.00005
  14        6D-2        0.00000   0.00000  -0.00000   0.00000
  15 2   H  1S          0.00000  -0.00623  -0.00161   0.00000   0.13043
  16        2S          0.00000  -0.00280  -0.00061   0.00000   0.05517
  17        3PX        -0.00027  -0.00000  -0.00000  -0.00000   0.00000
  18        3PY        -0.00000   0.00050   0.00020  -0.00000  -0.01281
  19        3PZ         0.00000  -0.00051  -0.00003  -0.00000   0.00744
  20 3   H  1S         -0.00000   0.00623  -0.00161   0.00000  -0.02761
  21        2S         -0.00000   0.00280  -0.00061   0.00000  -0.01588
  22        3PX        -0.00027  -0.00000   0.00000  -0.00000  -0.00000
  23        3PY        -0.00000   0.00050  -0.00020   0.00000   0.00015
  24        3PZ        -0.00000   0.00051  -0.00003  -0.00000  -0.00554
                          16        17        18        19        20
  16        2S          0.02504
  17        3PX         0.00000   0.00037
  18        3PY        -0.00513  -0.00000   0.00135
  19        3PZ         0.00286   0.00000  -0.00069   0.00067
  20 3   H  1S         -0.01588   0.00000  -0.00015  -0.00554   0.13043
  21        2S         -0.00690  -0.00000   0.00056  -0.00298   0.05517
  22        3PX         0.00000   0.00037   0.00000   0.00000  -0.00000
  23        3PY        -0.00056   0.00000  -0.00033  -0.00035   0.01281
  24        3PZ        -0.00298  -0.00000   0.00035  -0.00040   0.00744
                          21        22        23        24
  21        2S          0.02504
  22        3PX        -0.00000   0.00037
  23        3PY         0.00513  -0.00000   0.00135
  24        3PZ         0.00286  -0.00000   0.00069   0.00067
     Beta Density Matrix:
                           1         2         3         4         5
   1 1   O  1S          1.07092
   2        2S          0.14953   0.36603
   3        3S          0.14626   0.27157   0.21644
   4        4PX         0.00000   0.00000   0.00000   0.40925
   5        4PY         0.00000   0.00000   0.00000  -0.00000   0.21705
   6        4PZ         0.03079   0.06205   0.10747   0.00000   0.00000
   7        5PX         0.00000   0.00000   0.00000   0.32184  -0.00000
   8        5PY         0.00000   0.00000   0.00000  -0.00000   0.13480
   9        5PZ         0.02468   0.05541   0.08675   0.00000   0.00000
  10        6D 0       -0.00079  -0.00180  -0.00291  -0.00000   0.00000
  11        6D+1       -0.00000  -0.00000   0.00000  -0.00882   0.00000
  12        6D-1       -0.00000  -0.00000  -0.00000   0.00000  -0.01032
  13        6D+2       -0.00073  -0.00119  -0.00009   0.00000   0.00000
  14        6D-2       -0.00000  -0.00000  -0.00000  -0.00000   0.00000
  15 2   H  1S          0.01803   0.03614   0.00131  -0.00000   0.13097
  16        2S         -0.00600  -0.00916  -0.01788  -0.00000   0.05888
  17        3PX         0.00000   0.00000   0.00000   0.01236   0.00000
  18        3PY        -0.00410  -0.00731  -0.00238   0.00000  -0.01049
  19        3PZ         0.00385   0.00688   0.00500  -0.00000   0.01076
  20 3   H  1S          0.01803   0.03614   0.00131   0.00000  -0.13097
  21        2S         -0.00600  -0.00916  -0.01788   0.00000  -0.05888
  22        3PX        -0.00000  -0.00000  -0.00000   0.01236   0.00000
  23        3PY         0.00410   0.00731   0.00238   0.00000  -0.01049
  24        3PZ         0.00385   0.00688   0.00500   0.00000  -0.01076
                           6         7         8         9        10
   6        4PZ         0.28394
   7        5PX         0.00000   0.25310
   8        5PY         0.00000  -0.00000   0.08372
   9        5PZ         0.21285   0.00000   0.00000   0.15978
  10        6D 0       -0.00732  -0.00000   0.00000  -0.00549   0.00019
  11        6D+1       -0.00000  -0.00693   0.00000  -0.00000   0.00000
  12        6D-1        0.00000   0.00000  -0.00641  -0.00000  -0.00000
  13        6D+2        0.00337   0.00000   0.00000   0.00248  -0.00009
  14        6D-2       -0.00000  -0.00000  -0.00000  -0.00000   0.00000
  15 2   H  1S         -0.10821  -0.00000   0.08134  -0.07962   0.00276
  16        2S         -0.05071  -0.00000   0.03657  -0.03796   0.00131
  17        3PX        -0.00000   0.00972   0.00000  -0.00000   0.00000
  18        3PY         0.01251   0.00000  -0.00652   0.00913  -0.00032
  19        3PZ         0.00054  -0.00000   0.00668   0.00057  -0.00002
  20 3   H  1S         -0.10821   0.00000  -0.08134  -0.07962   0.00276
  21        2S         -0.05071   0.00000  -0.03657  -0.03796   0.00131
  22        3PX         0.00000   0.00972   0.00000   0.00000  -0.00000
  23        3PY        -0.01251   0.00000  -0.00652  -0.00913   0.00032
  24        3PZ         0.00054   0.00000  -0.00668   0.00057  -0.00002
                          11        12        13        14        15
  11        6D+1        0.00019
  12        6D-1       -0.00000   0.00049
  13        6D+2        0.00000  -0.00000   0.00005
  14        6D-2        0.00000   0.00000  -0.00000   0.00000
  15 2   H  1S          0.00000  -0.00623  -0.00161   0.00000   0.13043
  16        2S          0.00000  -0.00280  -0.00061   0.00000   0.05517
  17        3PX        -0.00027  -0.00000  -0.00000  -0.00000   0.00000
  18        3PY        -0.00000   0.00050   0.00020  -0.00000  -0.01281
  19        3PZ         0.00000  -0.00051  -0.00003  -0.00000   0.00744
  20 3   H  1S         -0.00000   0.00623  -0.00161   0.00000  -0.02761
  21        2S         -0.00000   0.00280  -0.00061   0.00000  -0.01588
  22        3PX        -0.00027  -0.00000   0.00000  -0.00000  -0.00000
  23        3PY        -0.00000   0.00050  -0.00020   0.00000   0.00015
  24        3PZ        -0.00000   0.00051  -0.00003  -0.00000  -0.00554
                          16        17        18        19        20
  16        2S          0.02504
  17        3PX         0.00000   0.00037
  18        3PY        -0.00513  -0.00000   0.00135
  19        3PZ         0.00286   0.00000  -0.00069   0.00067
  20 3   H  1S         -0.01588   0.00000  -0.00015  -0.00554   0.13043
  21        2S         -0.00690  -0.00000   0.00056  -0.00298   0.05517
  22        3PX         0.00000   0.00037   0.00000   0.00000  -0.00000
  23        3PY        -0.00056   0.00000  -0.00033  -0.00035   0.01281
  24        3PZ        -0.00298  -0.00000   0.00035  -0.00040   0.00744
                          21        22        23        24
  21        2S          0.02504
  22        3PX        -0.00000   0.00037
  23        3PY         0.00513  -0.00000   0.00135
  24        3PZ         0.00286  -0.00000   0.00069   0.00067
    Full Mulliken population analysis:
                           1         2         3         4         5
   1 1   O  1S          2.14184
   2        2S         -0.10288   0.73206
   3        3S         -0.04618   0.42851   0.43288
   4        4PX         0.00000   0.00000   0.00000   0.81850
   5        4PY         0.00000   0.00000   0.00000   0.00000   0.43411
   6        4PZ         0.00000   0.00000   0.00000   0.00000   0.00000
   7        5PX         0.00000   0.00000   0.00000   0.32322   0.00000
   8        5PY         0.00000   0.00000   0.00000   0.00000   0.13538
   9        5PZ         0.00000   0.00000   0.00000   0.00000   0.00000
  10        6D 0        0.00000   0.00000  -0.00000   0.00000   0.00000
  11        6D+1        0.00000  -0.00000   0.00000   0.00000   0.00000
  12        6D-1       -0.00000   0.00000   0.00000   0.00000   0.00000
  13        6D+2       -0.00000   0.00000   0.00000   0.00000   0.00000
  14        6D-2       -0.00000   0.00000   0.00000   0.00000   0.00000
  15 2   H  1S         -0.00077   0.01337   0.00098   0.00000   0.03783
  16        2S          0.00060  -0.00588  -0.02116   0.00000   0.01036
  17        3PX        -0.00000   0.00000   0.00000   0.00188   0.00000
  18        3PY        -0.00019   0.00307   0.00112   0.00000   0.00350
  19        3PZ        -0.00013   0.00206   0.00167   0.00000   0.00372
  20 3   H  1S         -0.00077   0.01337   0.00098   0.00000   0.03783
  21        2S          0.00060  -0.00588  -0.02116   0.00000   0.01036
  22        3PX         0.00000   0.00000   0.00000   0.00188   0.00000
  23        3PY        -0.00019   0.00307   0.00112   0.00000   0.00350
  24        3PZ        -0.00013   0.00206   0.00167   0.00000   0.00372
                           6         7         8         9        10
   6        4PZ         0.56789
   7        5PX         0.00000   0.50620
   8        5PY         0.00000   0.00000   0.16744
   9        5PZ         0.21376   0.00000   0.00000   0.31957
  10        6D 0        0.00000   0.00000   0.00000   0.00000   0.00038
  11        6D+1        0.00000   0.00000   0.00000   0.00000   0.00000
  12        6D-1        0.00000   0.00000   0.00000   0.00000   0.00000
  13        6D+2        0.00000   0.00000   0.00000   0.00000  -0.00000
  14        6D-2        0.00000   0.00000   0.00000   0.00000   0.00000
  15 2   H  1S          0.02230   0.00000   0.07362   0.05140   0.00001
  16        2S          0.00636   0.00000   0.02489   0.01843   0.00000
  17        3PX         0.00000   0.00482  -0.00000   0.00000   0.00000
  18        3PY         0.00433  -0.00000   0.00129   0.00452   0.00005
  19        3PZ        -0.00005   0.00000   0.00331   0.00008   0.00000
  20 3   H  1S          0.02230   0.00000   0.07362   0.05140   0.00001
  21        2S          0.00636   0.00000   0.02489   0.01843   0.00000
  22        3PX         0.00000   0.00482   0.00000   0.00000   0.00000
  23        3PY         0.00433   0.00000   0.00129   0.00452   0.00005
  24        3PZ        -0.00005   0.00000   0.00331   0.00008   0.00000
                          11        12        13        14        15
  11        6D+1        0.00038
  12        6D-1        0.00000   0.00098
  13        6D+2        0.00000   0.00000   0.00010
  14        6D-2        0.00000   0.00000   0.00000   0.00000
  15 2   H  1S          0.00000   0.00164   0.00030  -0.00000   0.26087
  16        2S          0.00000   0.00014   0.00002  -0.00000   0.07556
  17        3PX         0.00005   0.00000   0.00000  -0.00000   0.00000
  18        3PY         0.00000   0.00021   0.00003  -0.00000   0.00000
  19        3PZ         0.00000   0.00009   0.00001   0.00000   0.00000
  20 3   H  1S         -0.00000   0.00164   0.00030  -0.00000  -0.00187
  21        2S         -0.00000   0.00014   0.00002  -0.00000  -0.00574
  22        3PX         0.00005   0.00000  -0.00000   0.00000   0.00000
  23        3PY        -0.00000   0.00021   0.00003   0.00000   0.00001
  24        3PZ         0.00000   0.00009   0.00001   0.00000  -0.00000
                          16        17        18        19        20
  16        2S          0.05008
  17        3PX         0.00000   0.00075
  18        3PY         0.00000   0.00000   0.00269
  19        3PZ         0.00000   0.00000   0.00000   0.00133
  20 3   H  1S         -0.00574   0.00000   0.00001  -0.00000   0.26087
  21        2S         -0.00601  -0.00000  -0.00013  -0.00000   0.07556
  22        3PX         0.00000   0.00000   0.00000  -0.00000   0.00000
  23        3PY        -0.00013   0.00000   0.00003  -0.00000   0.00000
  24        3PZ        -0.00000   0.00000   0.00000  -0.00000   0.00000
                          21        22        23        24
  21        2S          0.05008
  22        3PX         0.00000   0.00075
  23        3PY         0.00000   0.00000   0.00269
  24        3PZ         0.00000   0.00000   0.00000   0.00133
     Gross orbital populations:
                         Total     Alpha     Beta      Spin
   1 1   O  1S          1.99178   0.99589   0.99589   0.00000
   2        2S          1.08291   0.54146   0.54146   0.00000
   3        3S          0.78041   0.39020   0.39020   0.00000
   4        4PX         1.14547   0.57273   0.57273   0.00000
   5        4PY         0.68033   0.34016   0.34016   0.00000
   6        4PZ         0.84753   0.42377   0.42377   0.00000
   7        5PX         0.83906   0.41953   0.41953   0.00000
   8        5PY         0.50905   0.25453   0.25453   0.00000
   9        5PZ         0.68221   0.34110   0.34110   0.00000
  10        6D 0        0.00049   0.00025   0.00025   0.00000
  11        6D+1        0.00048   0.00024   0.00024   0.00000
  12        6D-1        0.00514   0.00257   0.00257   0.00000
  13        6D+2        0.00083   0.00041   0.00041   0.00000
  14        6D-2        0.00000   0.00000   0.00000   0.00000
  15 2   H  1S          0.52950   0.26475   0.26475   0.00000
  16        2S          0.14752   0.07376   0.07376   0.00000
  17        3PX         0.00750   0.00375   0.00375   0.00000
  18        3PY         0.02054   0.01027   0.01027   0.00000
  19        3PZ         0.01209   0.00605   0.00605   0.00000
  20 3   H  1S          0.52950   0.26475   0.26475   0.00000
  21        2S          0.14752   0.07376   0.07376   0.00000
  22        3PX         0.00750   0.00375   0.00375   0.00000
  23        3PY         0.02054   0.01027   0.01027   0.00000
  24        3PZ         0.01209   0.00605   0.00605   0.00000
          Condensed to atoms (all electrons):
               1          2          3
     1  O    8.025934   0.269879   0.269879
     2  H    0.269879   0.466851  -0.019577
     3  H    0.269879  -0.019577   0.466851
          Atomic-Atomic Spin Densities.
               1          2          3
     1  O    0.000000   0.000000   0.000000
     2  H    0.000000   0.000000   0.000000
     3  H    0.000000   0.000000   0.000000
 Mulliken charges and spin densities:
               1          2
     1  O   -0.565693   0.000000
     2  H    0.282847   0.000000
     3  H    0.282847   0.000000
 Sum of Mulliken charges =  -0.00000   0.00000
 Mulliken charges and spin densities with hydrogens summed into heavy atoms:
               1          2
     1  O   -0.000000   0.000000
 Electronic spatial extent (au):  <R**2>=             22.0814
 Charge=             -0.0000 electrons
 Dipole moment (field-independent basis, Debye):
    X=             -0.0000    Y=             -0.0000    Z=             -2.3730  Tot=              2.3730
 Quadrupole moment (field-independent basis, Debye-Ang):
   XX=             -7.5664   YY=             -3.1621   ZZ=             -6.0715
   XY=              0.0000   XZ=              0.0000   YZ=              0.0000
 Traceless Quadrupole moment (field-independent basis, Debye-Ang):
   XX=             -1.9664   YY=              2.4379   ZZ=             -0.4715
   XY=              0.0000   XZ=              0.0000   YZ=              0.0000
 Octapole moment (field-independent basis, Debye-Ang**2):
  XXX=              0.0000  YYY=             -0.0000  ZZZ=             -1.1564  XYY=             -0.0000
  XXY=              0.0000  XXZ=             -0.1800  XZZ=             -0.0000  YZZ=             -0.0000
  YYZ=             -2.3529  XYZ=             -0.0000
 Hexadecapole moment (field-independent basis, Debye-Ang**3):
 XXXX=             -5.5488 YYYY=             -6.8642 ZZZZ=             -7.4895 XXXY=             -0.0000
 XXXZ=             -0.0000 YYYX=              0.0000 YYYZ=              0.0000 ZZZX=             -0.0000
 ZZZY=             -0.0000 XXYY=             -2.8457 XXZZ=             -2.2744 YYZZ=             -1.6850
 XXYZ=             -0.0000 YYXZ=              0.0000 ZZXY=              0.0000
 N-N= 7.326530533738D+00 E-N=-1.948202588420D+02  KE= 7.518431133806D+01
 Symmetry A1   KE= 6.751912776104D+01
 Symmetry A2   KE= 3.928101183660D-35
 Symmetry B1   KE= 4.634828015529D+00
 Symmetry B2   KE= 3.030355561496D+00

 Atomic contributions to Alpha molecular orbitals:
 Alpha occ 1 OE=-20.577 is O1-s=1.00
 Alpha occ 2 OE=-1.226 is O1-s=0.88
 Alpha occ 3 OE=-0.599 is O1-p=0.59 H2-s=0.19 H3-s=0.19
 Alpha occ 4 OE=-0.520 is O1-p=0.76
 Alpha occ 5 OE=-0.487 is O1-p=0.99
 Alpha vir 6 OE=0.132 is H2-s=0.47 H3-s=0.47 O1-p=0.13
 Alpha vir 7 OE=0.211 is H2-s=0.40 H3-s=0.40 O1-p=0.19
 Alpha vir 8 OE=0.679 is H2-s=0.43 H3-s=0.43
 Alpha vir 9 OE=0.684 is H2-s=0.43 H3-s=0.43
 Alpha vir 10 OE=1.177 is O1-p=0.68 O1-s=0.24
 Alpha vir 11 OE=1.182 is O1-p=0.92
 Alpha vir 12 OE=1.300 is O1-p=0.93
 Alpha vir 13 OE=1.352 is O1-s=0.78 O1-p=0.13
 Alpha vir 14 OE=1.572 is H3-p=0.47 H2-p=0.47
 Alpha vir 15 OE=1.758 is H2-p=0.31 H3-p=0.31 O1-p=0.23
 Alpha vir 16 OE=1.795 is H2-p=0.43 H3-p=0.43
 Alpha vir 17 OE=1.840 is H2-p=0.42 H3-p=0.42 O1-p=0.16
 Alpha vir 18 OE=2.084 is H2-p=0.43 H3-p=0.43
 Alpha vir 19 OE=2.194 is H2-p=0.42 H3-p=0.42 O1-d=0.15
 Alpha vir 20 OE=3.128 is O1-d=0.95
 Alpha vir 21 OE=3.180 is O1-d=0.94
 Alpha vir 22 OE=3.228 is O1-d=0.91
 Alpha vir 23 OE=3.662 is O1-d=0.83
 Alpha vir 24 OE=3.921 is O1-d=0.87

 Atomic contributions to Beta  molecular orbitals:
 Beta  occ 1 OE=-20.577 is O1-s=1.00
 Beta  occ 2 OE=-1.226 is O1-s=0.88
 Beta  occ 3 OE=-0.599 is O1-p=0.59 H2-s=0.19 H3-s=0.19
 Beta  occ 4 OE=-0.520 is O1-p=0.76
 Beta  occ 5 OE=-0.487 is O1-p=0.99
 Beta  vir 6 OE=0.132 is H2-s=0.47 H3-s=0.47 O1-p=0.13
 Beta  vir 7 OE=0.211 is H2-s=0.40 H3-s=0.40 O1-p=0.19
 Beta  vir 8 OE=0.679 is H2-s=0.43 H3-s=0.43
 Beta  vir 9 OE=0.684 is H2-s=0.43 H3-s=0.43
 Beta  vir 10 OE=1.177 is O1-p=0.68 O1-s=0.24
 Beta  vir 11 OE=1.182 is O1-p=0.92
 Beta  vir 12 OE=1.300 is O1-p=0.93
 Beta  vir 13 OE=1.352 is O1-s=0.78 O1-p=0.13
 Beta  vir 14 OE=1.572 is H3-p=0.47 H2-p=0.47
 Beta  vir 15 OE=1.758 is H2-p=0.31 H3-p=0.31 O1-p=0.23
 Beta  vir 16 OE=1.795 is H2-p=0.43 H3-p=0.43
 Beta  vir 17 OE=1.840 is H2-p=0.42 H3-p=0.42 O1-p=0.16
 Beta  vir 18 OE=2.084 is H2-p=0.43 H3-p=0.43
 Beta  vir 19 OE=2.194 is H2-p=0.42 H3-p=0.42 O1-d=0.15
 Beta  vir 20 OE=3.128 is O1-d=0.95
 Beta  vir 21 OE=3.180 is O1-d=0.94
 Beta  vir 22 OE=3.228 is O1-d=0.91
 Beta  vir 23 OE=3.662 is O1-d=0.83
 Beta  vir 24 OE=3.921 is O1-d=0.87
 
 Orbital energies and kinetic energies (alpha):
                                 1                 2
   1         (A1)--O         -20.577357         28.863685
[...]
    O  1   -0.46503      0.99999     3.45851    0.00652     4.46503
    H  2    0.23251      0.00000     0.26455    0.00294     0.26749
    H  3    0.23251      0.00000     0.26455    0.00294     0.26749
 ====================================================================
 * Total *  0.00000      0.99999     3.98761    0.01240     5.00000

                                 Natural Population
 ---------------------------------------------------------
   Core                       0.99999 ( 99.9992% of    1)
   Valence                    3.98761 ( 99.6902% of    4)
   Natural Minimal Basis      4.98760 ( 99.7520% of    5)
   Natural Rydberg Basis      0.01240 (  0.2480% of    5)
 ---------------------------------------------------------

    Atom No         Natural Electron Configuration
 ----------------------------------------------------------------------------
      O  1      [core]2s( 0.88)2p( 2.58)
      H  2            1s( 0.26)
      H  3            1s( 0.26)


 NATURAL BOND ORBITAL ANALYSIS, alpha spin orbitals:

                            Occupancies       Lewis Structure    Low   High
         Max    Occ     -------------------  -----------------   occ   occ
  Cycle  Ctr   Thresh    Lewis   non-Lewis     CR  BD  nC  LP    (L)   (NL)
 ============================================================================
    1     2     0.95     4.99655   0.00345      1   2   0   2     0      0
    2     2     0.73     4.62405   0.37595      1   1   0   3     0      2
    3     2     0.72     4.46502   0.53498      1   0   0   4     0      2
    4     2     0.95     4.99655   0.00345      1   2   0   2     0      0
 ----------------------------------------------------------------------------

 Structure accepted: No low occupancy Lewis orbitals

 -------------------------------------------------------
   Core                      0.99999 ( 99.999% of   1)
   Valence Lewis             3.99656 ( 99.914% of   4)
  ==================      =============================
   Total Lewis               4.99655 ( 99.931% of   5)
  -----------------------------------------------------
   Valence non-Lewis         0.00007 (  0.001% of   5)
   Rydberg non-Lewis         0.00337 (  0.067% of   5)
  ==================      =============================
   Total non-Lewis           0.00345 (  0.069% of   5)
 -------------------------------------------------------


     (Occupancy)   Bond orbital / Coefficients / Hybrids
 ------------------ Lewis ------------------------------------------------------
   1. (0.99999) CR ( 1) O  1            s(100.00%)
                                         1.0000  0.0000  0.0000  0.0000  0.0000
                                         0.0000  0.0000  0.0000  0.0000  0.0000
                                         0.0000  0.0000  0.0000  0.0000
   2. (0.99883) LP ( 1) O  1            s(  0.00%)p 1.00( 99.93%)d 0.00(  0.07%)
                                         0.0000  0.0000  0.0000  0.9994 -0.0226
                                         0.0000  0.0000  0.0000  0.0000  0.0000
                                        -0.0256  0.0000  0.0000  0.0000
   3. (0.99880) LP ( 2) O  1            s( 53.74%)p 0.86( 46.22%)d 0.00(  0.04%)
                                         0.0000  0.7328 -0.0188  0.0000  0.0000
                                         0.0000  0.0000  0.6798 -0.0121  0.0000
                                         0.0000  0.0000 -0.0024 -0.0193
   4. (0.99946) BD ( 1) O  1- H  2
               ( 73.41%)   0.8568* O  1 s( 23.16%)p 3.31( 76.65%)d 0.01(  0.19%)
                                         0.0000  0.4809  0.0194  0.0000  0.0000
                                         0.7056  0.0279 -0.5175 -0.0027  0.0000
                                         0.0000 -0.0358 -0.0177  0.0173
               ( 26.59%)   0.5157* H  2 s( 99.53%)p 0.00(  0.47%)
                                         0.9976 -0.0007  0.0000 -0.0580  0.0367
   5. (0.99946) BD ( 1) O  1- H  3
               ( 73.41%)   0.8568* O  1 s( 23.16%)p 3.31( 76.65%)d 0.01(  0.19%)
                                         0.0000  0.4809  0.0194  0.0000  0.0000
                                        -0.7056 -0.0279 -0.5175 -0.0027  0.0000
                                         0.0000  0.0358 -0.0177  0.0173
               ( 26.59%)   0.5157* H  3 s( 99.53%)p 0.00(  0.47%)
                                         0.9976 -0.0007  0.0000  0.0580  0.0367
 ---------------- non-Lewis ----------------------------------------------------
   6. (0.00004) BD*( 1) O  1- H  2
               ( 26.59%)   0.5157* O  1 s( 23.16%)p 3.31( 76.65%)d 0.01(  0.19%)
               ( 73.41%)  -0.8568* H  2 s( 99.53%)p 0.00(  0.47%)
   7. (0.00004) BD*( 1) O  1- H  3
               ( 26.59%)   0.5157* O  1 s( 23.16%)p 3.31( 76.65%)d 0.01(  0.19%)
               ( 73.41%)  -0.8568* H  3 s( 99.53%)p 0.00(  0.47%)
   8. (0.00000) RY ( 1) O  1            s(  0.02%)p99.99( 97.90%)d99.99(  2.08%)
   9. (0.00000) RY ( 2) O  1            s( 99.89%)p 0.00(  0.11%)d 0.00(  0.00%)
  10. (0.00000) RY ( 3) O  1            s(  0.00%)p 1.00(100.00%)d 0.00(  0.00%)
  11. (0.00000) RY ( 4) O  1            s(  0.00%)p 1.00(100.00%)d 0.00(  0.00%)
  12. (0.00000) RY ( 5) O  1            s(  0.00%)p 0.00(  0.00%)d 1.00(100.00%)
  13. (0.00000) RY ( 6) O  1            s(  0.00%)p 1.00(  0.07%)d99.99( 99.93%)
  14. (0.00000) RY ( 7) O  1            s(  0.00%)p 1.00(  0.26%)d99.99( 99.74%)
  15. (0.00000) RY ( 8) O  1            s(  0.03%)p73.07(  2.11%)d99.99( 97.86%)
  16. (0.00000) RY ( 9) O  1            s(  0.00%)p 1.00(  0.10%)d99.99( 99.90%)
  17. (0.00068) RY ( 1) H  2            s( 95.96%)p 0.04(  4.04%)
                                         0.0020  0.9796  0.0000 -0.0909 -0.1792
  18. (0.00058) RY ( 2) H  2            s(  0.00%)p 1.00(100.00%)
                                         0.0000  0.0000  1.0000  0.0000  0.0000
  19. (0.00042) RY ( 3) H  2            s(  3.98%)p24.11( 96.02%)
                                         0.0018  0.1995  0.0000  0.5444  0.8148
  20. (0.00000) RY ( 4) H  2            s(  0.53%)p99.99( 99.47%)
  21. (0.00068) RY ( 1) H  3            s( 95.96%)p 0.04(  4.04%)
                                         0.0020  0.9796  0.0000  0.0909 -0.1792
  22. (0.00058) RY ( 2) H  3            s(  0.00%)p 1.00(100.00%)
                                         0.0000  0.0000  1.0000  0.0000  0.0000
  23. (0.00042) RY ( 3) H  3            s(  3.98%)p24.11( 96.02%)
                                         0.0018  0.1995  0.0000 -0.5444  0.8148
  24. (0.00000) RY ( 4) H  3            s(  0.53%)p99.99( 99.47%)


 NATURAL BOND ORBITALS (Summary):

           NBO                 Occupancy
 ========================================
 Molecular unit  1  (H2O)
 ------ Lewis ---------------------------
    1. CR ( 1) O  1             0.99999
    2. LP ( 1) O  1             0.99883
    3. LP ( 2) O  1             0.99880
    4. BD ( 1) O  1- H  2       0.99946
    5. BD ( 1) O  1- H  3       0.99946
 ------ non-Lewis -----------------------
    6. BD*( 1) O  1- H  2       0.00004
    7. BD*( 1) O  1- H  3       0.00004
    8. RY ( 1) O  1             0.00000
    9. RY ( 2) O  1             0.00000
   10. RY ( 3) O  1             0.00000
   11. RY ( 4) O  1             0.00000
   12. RY ( 5) O  1             0.00000
   13. RY ( 6) O  1             0.00000
   14. RY ( 7) O  1             0.00000
   15. RY ( 8) O  1             0.00000
   16. RY ( 9) O  1             0.00000
   17. RY ( 1) H  2             0.00068
   18. RY ( 2) H  2             0.00058
   19. RY ( 3) H  2             0.00042
   20. RY ( 4) H  2             0.00000
   21. RY ( 1) H  3             0.00068
   22. RY ( 2) H  3             0.00058
   23. RY ( 3) H  3             0.00042
   24. RY ( 4) H  3             0.00000
          -------------------------------
                 Total Lewis    4.99655  ( 99.9311%)
           Valence non-Lewis    0.00007  (  0.0014%)
           Rydberg non-Lewis    0.00337  (  0.0675%)
          -------------------------------
               Total unit  1    5.00000  (100.0000%)
              Charge unit  1    0.00000


 ***************************************************
 *******         Beta  spin orbitals         *******
 ***************************************************


 NATURAL POPULATIONS:  Natural atomic orbital occupancies

  NAO Atom No lang   Type(AO)    Occupancy
 ------------------------------------------
   1    O  1  s      Cor( 1s)     0.99999
   2    O  1  s      Val( 2s)     0.87813
   3    O  1  s      Ryd( 3s)     0.00091
   4    O  1  px     Val( 2p)     0.99767
   5    O  1  px     Ryd( 3p)     0.00051
   6    O  1  py     Val( 2p)     0.72543
   7    O  1  py     Ryd( 3p)     0.00114
   8    O  1  pz     Val( 2p)     0.85729
   9    O  1  pz     Ryd( 3p)     0.00016
  10    O  1  dxy    Ryd( 3d)     0.00000
  11    O  1  dxz    Ryd( 3d)     0.00065
  12    O  1  dyz    Ryd( 3d)     0.00187
  13    O  1  dx2y2  Ryd( 3d)     0.00047
  14    O  1  dz2    Ryd( 3d)     0.00081

  15    H  2  s      Val( 1s)     0.26455
  16    H  2  s      Ryd( 2s)     0.00067
  17    H  2  px     Ryd( 2p)     0.00058
  18    H  2  py     Ryd( 2p)     0.00102
  19    H  2  pz     Ryd( 2p)     0.00067

  20    H  3  s      Val( 1s)     0.26455
  21    H  3  s      Ryd( 2s)     0.00067
  22    H  3  px     Ryd( 2p)     0.00058
  23    H  3  py     Ryd( 2p)     0.00102
  24    H  3  pz     Ryd( 2p)     0.00067


 Summary of Natural Population Analysis:

                                     Natural Population
             Natural    ---------------------------------------------
  Atom No    Charge        Core      Valence    Rydberg      Total
 --------------------------------------------------------------------
    O  1   -0.46503      0.99999     3.45851    0.00652     4.46503
    H  2    0.23251      0.00000     0.26455    0.00294     0.26749
    H  3    0.23251      0.00000     0.26455    0.00294     0.26749
 ====================================================================
 * Total *  0.00000      0.99999     3.98761    0.01240     5.00000

                                 Natural Population
 ---------------------------------------------------------
   Core                       0.99999 ( 99.9992% of    1)
   Valence                    3.98761 ( 99.6902% of    4)
   Natural Minimal Basis      4.98760 ( 99.7520% of    5)
   Natural Rydberg Basis      0.01240 (  0.2480% of    5)
 ---------------------------------------------------------

    Atom No         Natural Electron Configuration
 ----------------------------------------------------------------------------
      O  1      [core]2s( 0.88)2p( 2.58)
      H  2            1s( 0.26)
      H  3            1s( 0.26)


 NATURAL BOND ORBITAL ANALYSIS, beta spin orbitals:

                            Occupancies       Lewis Structure    Low   High
         Max    Occ     -------------------  -----------------   occ   occ
  Cycle  Ctr   Thresh    Lewis   non-Lewis     CR  BD  nC  LP    (L)   (NL)
 ============================================================================
    1     2     0.95     4.99655   0.00345      1   2   0   2     0      0
    2     2     0.73     4.62405   0.37595      1   1   0   3     0      2
    3     2     0.72     4.46502   0.53498      1   0   0   4     0      2
    4     2     0.95     4.99655   0.00345      1   2   0   2     0      0
 ----------------------------------------------------------------------------

 Structure accepted: No low occupancy Lewis orbitals

 -------------------------------------------------------
   Core                      0.99999 ( 99.999% of   1)
   Valence Lewis             3.99656 ( 99.914% of   4)
  ==================      =============================
   Total Lewis               4.99655 ( 99.931% of   5)
  -----------------------------------------------------
   Valence non-Lewis         0.00007 (  0.001% of   5)
   Rydberg non-Lewis         0.00337 (  0.067% of   5)
  ==================      =============================
   Total non-Lewis           0.00345 (  0.069% of   5)
 -------------------------------------------------------


     (Occupancy)   Bond orbital / Coefficients / Hybrids
 ------------------ Lewis ------------------------------------------------------
   1. (0.99999) CR ( 1) O  1            s(100.00%)
                                         1.0000  0.0000  0.0000  0.0000  0.0000
                                         0.0000  0.0000  0.0000  0.0000  0.0000
                                         0.0000  0.0000  0.0000  0.0000
   2. (0.99883) LP ( 1) O  1            s(  0.00%)p 1.00( 99.93%)d 0.00(  0.07%)
                                         0.0000  0.0000  0.0000  0.9994 -0.0226
                                         0.0000  0.0000  0.0000  0.0000  0.0000
                                        -0.0256  0.0000  0.0000  0.0000
   3. (0.99880) LP ( 2) O  1            s( 53.74%)p 0.86( 46.22%)d 0.00(  0.04%)
                                         0.0000  0.7328 -0.0188  0.0000  0.0000
                                         0.0000  0.0000  0.6798 -0.0121  0.0000
                                         0.0000  0.0000 -0.0024 -0.0193
   4. (0.99946) BD ( 1) O  1- H  2
               ( 73.41%)   0.8568* O  1 s( 23.16%)p 3.31( 76.65%)d 0.01(  0.19%)
                                         0.0000  0.4809  0.0194  0.0000  0.0000
                                         0.7056  0.0279 -0.5175 -0.0027  0.0000
                                         0.0000 -0.0358 -0.0177  0.0173
               ( 26.59%)   0.5157* H  2 s( 99.53%)p 0.00(  0.47%)
                                         0.9976 -0.0007  0.0000 -0.0580  0.0367
   5. (0.99946) BD ( 1) O  1- H  3
               ( 73.41%)   0.8568* O  1 s( 23.16%)p 3.31( 76.65%)d 0.01(  0.19%)
                                         0.0000  0.4809  0.0194  0.0000  0.0000
                                        -0.7056 -0.0279 -0.5175 -0.0027  0.0000
                                         0.0000  0.0358 -0.0177  0.0173
               ( 26.59%)   0.5157* H  3 s( 99.53%)p 0.00(  0.47%)
                                         0.9976 -0.0007  0.0000  0.0580  0.0367
 ---------------- non-Lewis ----------------------------------------------------
   6. (0.00004) BD*( 1) O  1- H  2
               ( 26.59%)   0.5157* O  1 s( 23.16%)p 3.31( 76.65%)d 0.01(  0.19%)
               ( 73.41%)  -0.8568* H  2 s( 99.53%)p 0.00(  0.47%)
   7. (0.00004) BD*( 1) O  1- H  3
               ( 26.59%)   0.5157* O  1 s( 23.16%)p 3.31( 76.65%)d 0.01(  0.19%)
               ( 73.41%)  -0.8568* H  3 s( 99.53%)p 0.00(  0.47%)
   8. (0.00000) RY ( 1) O  1            s(  0.02%)p99.99( 97.90%)d99.99(  2.08%)
   9. (0.00000) RY ( 2) O  1            s( 99.89%)p 0.00(  0.11%)d 0.00(  0.00%)
  10. (0.00000) RY ( 3) O  1            s(  0.00%)p 1.00(100.00%)d 0.00(  0.00%)
  11. (0.00000) RY ( 4) O  1            s(  0.00%)p 1.00(100.00%)d 0.00(  0.00%)
  12. (0.00000) RY ( 5) O  1            s(  0.00%)p 0.00(  0.00%)d 1.00(100.00%)
  13. (0.00000) RY ( 6) O  1            s(  0.00%)p 1.00(  0.07%)d99.99( 99.93%)
  14. (0.00000) RY ( 7) O  1            s(  0.00%)p 1.00(  0.26%)d99.99( 99.74%)
  15. (0.00000) RY ( 8) O  1            s(  0.03%)p73.07(  2.11%)d99.99( 97.86%)
  16. (0.00000) RY ( 9) O  1            s(  0.00%)p 1.00(  0.10%)d99.99( 99.90%)
  17. (0.00068) RY ( 1) H  2            s( 95.96%)p 0.04(  4.04%)
                                         0.0020  0.9796  0.0000 -0.0909 -0.1792
  18. (0.00058) RY ( 2) H  2            s(  0.00%)p 1.00(100.00%)
                                         0.0000  0.0000  1.0000  0.0000  0.0000
  19. (0.00042) RY ( 3) H  2            s(  3.98%)p24.11( 96.02%)
                                         0.0018  0.1995  0.0000  0.5444  0.8148
  20. (0.00000) RY ( 4) H  2            s(  0.53%)p99.99( 99.47%)
  21. (0.00068) RY ( 1) H  3            s( 95.96%)p 0.04(  4.04%)
                                         0.0020  0.9796  0.0000  0.0909 -0.1792
  22. (0.00058) RY ( 2) H  3            s(  0.00%)p 1.00(100.00%)
                                         0.0000  0.0000  1.0000  0.0000  0.0000
  23. (0.00042) RY ( 3) H  3            s(  3.98%)p24.11( 96.02%)
                                         0.0018  0.1995  0.0000 -0.5444  0.8148
  24. (0.00000) RY ( 4) H  3            s(  0.53%)p99.99( 99.47%)


 NATURAL BOND ORBITALS (Summary):

           NBO                 Occupancy
 ========================================
 Molecular unit  1  (H2O)
 ------ Lewis ---------------------------
    1. CR ( 1) O  1             0.99999
    2. LP ( 1) O  1             0.99883
    3. LP ( 2) O  1             0.99880
    4. BD ( 1) O  1- H  2       0.99946
    5. BD ( 1) O  1- H  3       0.99946
 ------ non-Lewis -----------------------
    6. BD*( 1) O  1- H  2       0.00004
    7. BD*( 1) O  1- H  3       0.00004
    8. RY ( 1) O  1             0.00000
    9. RY ( 2) O  1             0.00000
   10. RY ( 3) O  1             0.00000
   11. RY ( 4) O  1             0.00000
   12. RY ( 5) O  1             0.00000
   13. RY ( 6) O  1             0.00000
   14. RY ( 7) O  1             0.00000
   15. RY ( 8) O  1             0.00000
   16. RY ( 9) O  1             0.00000
   17. RY ( 1) H  2             0.00068
   18. RY ( 2) H  2             0.00058
   19. RY ( 3) H  2             0.00042
   20. RY ( 4) H  2             0.00000
   21. RY ( 1) H  3             0.00068
   22. RY ( 2) H  3             0.00058
   23. RY ( 3) H  3             0.00042
   24. RY ( 4) H  3             0.00000
          -------------------------------
                 Total Lewis    4.99655  ( 99.9311%)
           Valence non-Lewis    0.00007  (  0.0014%)
           Rydberg non-Lewis    0.00337  (  0.0675%)
          -------------------------------
               Total unit  1    5.00000  (100.0000%)
              Charge unit  1    0.00000

 $CHOOSE
  ALPHA
   LONE 1 2 END
   BOND S 1 2 S 1 3 END
  END
  BETA
   LONE 1 2 END
   BOND S 1 2 S 1 3 END
  END
 $END

 NBO analysis completed in 0.04 CPU seconds (0 wall seconds)
 Maximum scratch memory used by NBO was 146826 words
 Maximum scratch memory used by G09NBO was 12331 words

 Read Unf file /scr/martin/g09job987/Gau-30421.EUF:
 Label Gaussian matrix elements                                         IVers= 1 NLab= 2 Version=ES64L-G09RevE.01
 Title Water MP5/def2-SVP                                              
 NAtoms=     3 NBasis=    24 NBsUse=    24 ICharg=     0 Multip=     1 NE=    10 Len12L=8 Len4L=8
 Label GAUSSIAN SCALARS                                                 NI= 1 NR= 1 NTot=       1 LenBuf=    2000 N=    1000       1       1       1       1
 Label NPA CHARGES                                                      NI= 0 NR= 1 NTot=       3 LenBuf=    4000 N=       3       0       0       0       0
 Recovered energy= -76.1782433258     dipole=      0.000000000000      0.000000000000      0.000000000000
 Leave Link  612 at Tue Jan  9 19:01:10 2018, MaxMem=  4194304000 cpu:         1.9
 (Enter /home/chemsoft/gaussian/g09e01/g09/l9999.exe)

 Test job not archived.
 1\1\GINC-LENOX07\FOpt\UMP5-FC\def2SVP\H2O1\MARTIN\09-Jan-2018\1\\#p MP
 5/def2SVP opt scf(xqc) gfinput gfoldprint iop(6/7=3) scrf(pcm,solvent=
 toluene) pop=full pop=nbo6 pop=allorbitals symmetry=loose\\Water MP5/d
 ef2-SVP\\0,1\O\H,1,bond\H,1,bond,2,angle\\bond=0.96415247\angle=102.25
 755723\\Version=ES64L-G09RevE.01\State=1-A1\HF=-75.9640404\MP2=-76.165
 5794\MP3=-76.1724176\MP4D=-76.1758209\MP4DQ=-76.1740853\MP4SDTQ=-76.17
 77232\MP5=-76.1782433\PUHF=-75.9640404\PMP2-0=-76.1655794\PMP3-0=-76.1
 724176\S2=0.\S2-1=0.\S2A=0.\RMSD=1.759e-09\RMSF=8.849e-06\PG=C02V [C2(
 O1),SGV(H2)]\\@


 SILVERMAN'S PARADOX - IF MURPHY'S LAW CAN GO WRONG, IT WILL.
 Job cpu time:       0 days  0 hours 18 minutes  9.0 seconds.
 File lengths (MBytes):  RWF=     33 Int=      0 D2E=      0 Chk=      1 Scr=      1
 Normal termination of Gaussian 09 at Tue Jan  9 19:01:10 2018.
