 Entering Gaussian System, Link 0=g09
 Input=h2o.df-bp86.def2svp.prop.com
 Output=h2o.df-bp86.def2svp.prop.log
 Initial command:
 /home/chemsoft/gaussian/g09e01/g09/l1.exe "/scr/martin/g09job.inter1515493582/Gau-6037.inp" -scrdir="/scr/martin/g09job.inter1515493582/"
 Entering Link 1 = /home/chemsoft/gaussian/g09e01/g09/l1.exe PID=      6038.
  
 Copyright (c) 1988,1990,1992,1993,1995,1998,2003,2009,2015,
            Gaussian, Inc.  All Rights Reserved.
  
 This is part of the Gaussian(R) 09 program.  It is based on
 the Gaussian(R) 03 system (copyright 2003, Gaussian, Inc.),
 the Gaussian(R) 98 system (copyright 1998, Gaussian, Inc.),
 the Gaussian(R) 94 system (copyright 1995, Gaussian, Inc.),
 the Gaussian 92(TM) system (copyright 1992, Gaussian, Inc.),
 the Gaussian 90(TM) system (copyright 1990, Gaussian, Inc.),
 the Gaussian 88(TM) system (copyright 1988, Gaussian, Inc.),
 the Gaussian 86(TM) system (copyright 1986, Carnegie Mellon
 University), and the Gaussian 82(TM) system (copyright 1983,
 Carnegie Mellon University). Gaussian is a federally registered
 trademark of Gaussian, Inc.
  
 This software contains proprietary and confidential information,
 including trade secrets, belonging to Gaussian, Inc.
  
 This software is provided under written license and may be
 used, copied, transmitted, or stored only in accord with that
 written license.
  
 The following legend is applicable only to US Government
 contracts under FAR:
  
                    RESTRICTED RIGHTS LEGEND
  
 Use, reproduction and disclosure by the US Government is
 subject to restrictions as set forth in subparagraphs (a)
 and (c) of the Commercial Computer Software - Restricted
 Rights clause in FAR 52.227-19.
  
 Gaussian, Inc.
 340 Quinnipiac St., Bldg. 40, Wallingford CT 06492
  
  
 ---------------------------------------------------------------
 Warning -- This program may not be used in any manner that
 competes with the business of Gaussian, Inc. or will provide
 assistance to any competitor of Gaussian, Inc.  The licensee
 of this program is prohibited from giving any competitor of
 Gaussian, Inc. access to this program.  By using this program,
 the user acknowledges that Gaussian, Inc. is engaged in the
 business of creating and licensing software in the field of
 computational chemistry and represents and warrants to the
 licensee that it is not a competitor of Gaussian, Inc. and that
 it will not use this program in any manner prohibited above.
 ---------------------------------------------------------------
  

 Cite this work as:
 Gaussian 09, Revision E.01,
 M. J. Frisch, G. W. Trucks, H. B. Schlegel, G. E. Scuseria, 
 M. A. Robb, J. R. Cheeseman, G. Scalmani, V. Barone, B. Mennucci, 
 G. A. Petersson, H. Nakatsuji, M. Caricato, X. Li, H. P. Hratchian, 
 A. F. Izmaylov, J. Bloino, G. Zheng, J. L. Sonnenberg, M. Hada, 
 M. Ehara, K. Toyota, R. Fukuda, J. Hasegawa, M. Ishida, T. Nakajima, 
 Y. Honda, O. Kitao, H. Nakai, T. Vreven, J. A. Montgomery, Jr., 
 J. E. Peralta, F. Ogliaro, M. Bearpark, J. J. Heyd, E. Brothers, 
 K. N. Kudin, V. N. Staroverov, T. Keith, R. Kobayashi, J. Normand, 
 K. Raghavachari, A. Rendell, J. C. Burant, S. S. Iyengar, J. Tomasi, 
 M. Cossi, N. Rega, J. M. Millam, M. Klene, J. E. Knox, J. B. Cross, 
 V. Bakken, C. Adamo, J. Jaramillo, R. Gomperts, R. E. Stratmann, 
 O. Yazyev, A. J. Austin, R. Cammi, C. Pomelli, J. W. Ochterski, 
 R. L. Martin, K. Morokuma, V. G. Zakrzewski, G. A. Voth, 
 P. Salvador, J. J. Dannenberg, S. Dapprich, A. D. Daniels, 
 O. Farkas, J. B. Foresman, J. V. Ortiz, J. Cioslowski, 
 and D. J. Fox, Gaussian, Inc., Wallingford CT, 2013.
 
 ******************************************
 Gaussian 09:  ES64L-G09RevE.01 30-Nov-2015
                 9-Jan-2018 
 ******************************************
 %chk=h2o.df-bp86.def2svp.chk
 ----------------------------------------------------------------------
 #P BP86/def2SVP/W06 DenFit scf(xqc,MaxConventionalCycle=500) int(ultra
 finegrid) gfinput gfoldprint iop(6/7=3) symmetry(loose) geom=allcheck 
 guess(read,only) output=wfx
 ----------------------------------------------------------------------
 1/29=7,38=1/1;
 2/12=2,17=4,18=3,40=1/2;
 3/5=43,7=101,11=2,14=-4,16=1,24=11,25=1,30=1,74=404,75=-5,82=40,89=1,116=-2/1,2,3;
 4/5=1/1;
 6/7=3,28=1/1;
 99/5=2,6=200/99;
 Leave Link    1 at Tue Jan  9 19:26:22 2018, MaxMem=           0 cpu:         0.1
 (Enter /home/chemsoft/gaussian/g09e01/g09/l101.exe)
 Structure from the checkpoint file:  "h2o.df-bp86.def2svp.chk"
 ----------------------
 Water DF-BP86/def2-SVP
 ----------------------
 Charge =  0 Multiplicity = 1
 No Z-Matrix found in file; cartesian coordinates used.
  O                                                 0.000000000000      0.000000000000      0.000000000000
  H                                                 0.000000000000      0.000000000000      0.950000001989
  H                                                 0.895670002412      0.000000000000     -0.316662999779
 Recover connectivity data from disk.
 NAtoms=      3 NQM=        3 NQMF=       0 NMMI=      0 NMMIF=      0
                NMic=       0 NMicF=      0.
                    Isotopes and Nuclear Properties:
 (Nuclear quadrupole moments (NQMom) in fm**2, nuclear magnetic moments (NMagM)
  in nuclear magnetons)

  Atom         1           2           3
 IAtWgt=          16           1           1
 AtmWgt=  15.9949146   1.0078250   1.0078250
 NucSpn=           0           1           1
 AtZEff=  -5.6000000  -1.0000000  -1.0000000
 NQMom=    0.0000000   0.0000000   0.0000000
 NMagM=    0.0000000   2.7928460   2.7928460
 AtZNuc=   8.0000000   1.0000000   1.0000000
 Leave Link  101 at Tue Jan  9 19:26:22 2018, MaxMem=    33554432 cpu:         0.0
 (Enter /home/chemsoft/gaussian/g09e01/g09/l202.exe)
                          Input orientation:                          
 ---------------------------------------------------------------------
 Center     Atomic      Atomic             Coordinates (Angstroms)
 Number     Number       Type             X           Y           Z
 ---------------------------------------------------------------------
      1          8           0        0.000000    0.000000    0.000000
      2          1           0        0.000000    0.000000    0.950000
      3          1           0        0.895670    0.000000   -0.316663
 ---------------------------------------------------------------------
                    Distance matrix (angstroms):
                    1          2          3
     1  O    0.000000
     2  H    0.950000   0.000000
     3  H    0.950000   1.551341   0.000000
 Stoichiometry    H2O
 Framework group  C2V[C2(O),SGV(H2)]
 Deg. of freedom     2
 Full point group                 C2V     NOp   4
 Largest Abelian subgroup         C2V     NOp   4
 Largest concise Abelian subgroup C2      NOp   2
                         Standard orientation:                         
 ---------------------------------------------------------------------
 Center     Atomic      Atomic             Coordinates (Angstroms)
 Number     Number       Type             X           Y           Z
 ---------------------------------------------------------------------
      1          8           0        0.000000   -0.000000    0.109697
      2          1           0        0.000000   -0.775671   -0.438788
      3          1           0        0.000000    0.775671   -0.438788
 ---------------------------------------------------------------------
 Rotational constants (GHZ):    938.4665865    416.7229527    288.5799777
 Leave Link  202 at Tue Jan  9 19:26:22 2018, MaxMem=    33554432 cpu:         0.0
 (Enter /home/chemsoft/gaussian/g09e01/g09/l301.exe)
 Standard basis: def2SVP (5D, 7F)
 ======================================================================================================
                                       Pseudopotential Parameters
 ======================================================================================================
  Center     Atomic      Valence      Angular      Power
  Number     Number     Electrons     Momentum     of R      Exponent        Coefficient   SO-Coeffient
 ======================================================================================================
    1          8
                                   No pseudopotential on this center.
    2          1
                                   No pseudopotential on this center.
    3          1
                                   No pseudopotential on this center.
 ======================================================================================================
 Ernie: Thresh=  0.10000D-02 Tol=  0.10000D-05 Strict=F.
 AO basis set in the form of general basis input (Overlap normalization):
      1 0
 S   5 1.00       0.000000000000
      0.2266176779D+04 -0.5389350392D-02
      0.3408701019D+03 -0.4023472139D-01
      0.7736313517D+02 -0.1800818421D+00
      0.2147964494D+02 -0.4682885766D+00
      0.6658943312D+01 -0.4469261716D+00
 S   1 1.00       0.000000000000
      0.8097597567D+00  0.1000000000D+01
 S   1 1.00       0.000000000000
      0.2553077223D+00  0.1000000000D+01
 P   3 1.00       0.000000000000
      0.1772150432D+02  0.6263024876D-01
      0.3863550544D+01  0.3333113848D+00
      0.1048092088D+01  0.7414863831D+00
 P   1 1.00       0.000000000000
      0.2764154441D+00  0.1000000000D+01
 D   1 1.00       0.000000000000
      0.1200000000D+01  0.1000000000D+01
 ****
      2 0
 S   3 1.00       0.000000000000
      0.1301070100D+02  0.3348548481D-01
      0.1962257200D+01  0.2347218709D+00
      0.4445379600D+00  0.8137702853D+00
 S   1 1.00       0.000000000000
      0.1219496200D+00  0.1000000000D+01
 P   1 1.00       0.000000000000
      0.8000000000D+00  0.1000000000D+01
 ****
      3 0
 S   3 1.00       0.000000000000
      0.1301070100D+02  0.3348548481D-01
      0.1962257200D+01  0.2347218709D+00
      0.4445379600D+00  0.8137702853D+00
 S   1 1.00       0.000000000000
      0.1219496200D+00  0.1000000000D+01
 P   1 1.00       0.000000000000
      0.8000000000D+00  0.1000000000D+01
 ****

 ***********************************************************************************************************************************
 *             ATOMIC CENTER             *        ATOMIC ORBITAL       *                     GAUSSIAN FUNCTIONS                    *
 ***********************************************************************************************************************************
 *                                       * FUNCTION    SHELL    SCALE  *                                                           *
 *    ATOM   X-COORD  Y-COORD  Z-COORD   *  NUMBER     TYPE     FACTOR *  EXPONENT    S-COEF      P-COEF      D-COEF      F-COEF   *
 ***********************************************************************************************************************************
 *     O      0.00000 -0.00000  0.20730                                                                                            *
+                                                1   S           1.00                                                               
+                                                                      0.226618D+04-.126159D+010.000000D+000.000000D+000.000000D+00 
 *                                                                     0.340870D+03-.227485D+010.000000D+000.000000D+000.000000D+00*
 *                                                                     0.773631D+02-.334796D+010.000000D+000.000000D+000.000000D+00*
 *                                                                     0.214796D+02-.333000D+010.000000D+000.000000D+000.000000D+00*
 *                                                                     0.665894D+01-.132038D+010.000000D+000.000000D+000.000000D+00*
 *                                               2   S           1.00                                                              *
+                                                                      0.809760D+000.608383D+000.000000D+000.000000D+000.000000D+00 
 *                                               3   S           1.00                                                              *
+                                                                      0.255308D+000.255981D+000.000000D+000.000000D+000.000000D+00 
 *                                           4-  6   P           1.00                                                              *
+                                                                      0.177215D+020.000000D+000.324601D+010.000000D+000.000000D+00 
 *                                                                     0.386355D+010.000000D+000.257350D+010.000000D+000.000000D+00*
 *                                                                     0.104809D+010.000000D+000.112084D+010.000000D+000.000000D+00*
 *                                           7-  9   P           1.00                                                              *
+                                                                      0.276415D+000.000000D+000.285689D+000.000000D+000.000000D+00 
 *                                          10- 14   D           1.00                                                              *
+                                                                      0.120000D+010.000000D+000.000000D+000.226452D+010.000000D+00 
 *---------------------------------------------------------------------------------------------------------------------------------*
 *     H      0.00000 -1.46580 -0.82919                                                                                            *
+                                               15   S           1.00                                                               
+                                                                      0.130107D+020.163490D+000.000000D+000.000000D+000.000000D+00 
 *                                                                     0.196226D+010.277352D+000.000000D+000.000000D+000.000000D+00*
 *                                                                     0.444538D+000.315750D+000.000000D+000.000000D+000.000000D+00*
 *                                              16   S           1.00                                                              *
+                                                                      0.121950D+000.147077D+000.000000D+000.000000D+000.000000D+00 
 *                                          17- 19   P           1.00                                                              *
+                                                                      0.800000D+000.000000D+000.107846D+010.000000D+000.000000D+00 
 *---------------------------------------------------------------------------------------------------------------------------------*
 *     H      0.00000  1.46580 -0.82919                                                                                            *
+                                               20   S           1.00                                                               
+                                                                      0.130107D+020.163490D+000.000000D+000.000000D+000.000000D+00 
 *                                                                     0.196226D+010.277352D+000.000000D+000.000000D+000.000000D+00*
 *                                                                     0.444538D+000.315750D+000.000000D+000.000000D+000.000000D+00*
 *                                              21   S           1.00                                                              *
+                                                                      0.121950D+000.147077D+000.000000D+000.000000D+000.000000D+00 
 *                                          22- 24   P           1.00                                                              *
+                                                                      0.800000D+000.000000D+000.107846D+010.000000D+000.000000D+00 
 ***********************************************************************************************************************************
 There are    12 symmetry adapted cartesian basis functions of A1  symmetry.
 There are     2 symmetry adapted cartesian basis functions of A2  symmetry.
 There are     4 symmetry adapted cartesian basis functions of B1  symmetry.
 There are     7 symmetry adapted cartesian basis functions of B2  symmetry.
 There are    11 symmetry adapted basis functions of A1  symmetry.
 There are     2 symmetry adapted basis functions of A2  symmetry.
 There are     4 symmetry adapted basis functions of B1  symmetry.
 There are     7 symmetry adapted basis functions of B2  symmetry.
    24 basis functions,    39 primitive gaussians,    25 cartesian basis functions
     5 alpha electrons        5 beta electrons
       nuclear repulsion energy         9.2535675654 Hartrees.
 IExCor=  404 DFT=T Ex=B Corr=P86 ExCW=0 ScaHFX=  0.000000
 ScaDFX=  1.000000  1.000000  1.000000  1.000000 ScalE2=  1.000000  1.000000
 IRadAn=      5 IRanWt=     -1 IRanGd=            0 ICorTp=0 IEmpDi=  4
 NAtoms=    3 NActive=    3 NUniq=    2 SFac= 2.25D+00 NAtFMM=   60 NAOKFM=F Big=F
 Integral buffers will be    131072 words long.
 Raffenetti 2 integral format.
 Two-electron integral symmetry is turned on.
 Standard density basis: W06 (5D, 7F)
    71 Density fitting functions
 Density basis set in the form of general basis input (Coulomb normalization):
      1 0
 S   7 1.00       0.000000000000
      0.2876821660D+04  0.2270593741D-02
      0.1004744303D+04  0.7771821934D-02
      0.3697579954D+03  0.4500776675D-01
      0.1429442404D+03  0.1614169872D+00
      0.5783664250D+02  0.4002483159D+00
      0.2438649830D+02  0.4055352428D+00
      0.1066226620D+02  0.1264483877D-01
 S   1 1.00       0.000000000000
      0.4807043700D+01 -0.1000000000D+01
 S   1 1.00       0.000000000000
      0.2221077000D+01  0.1000000000D+01
 S   1 1.00       0.000000000000
      0.1044779500D+01  0.1000000000D+01
 S   1 1.00       0.000000000000
      0.4968425000D+00  0.1000000000D+01
 S   1 1.00       0.000000000000
      0.2371384000D+00  0.1000000000D+01
 P   2 1.00       0.000000000000
      0.6426133820D+02 -0.1493990575D+00
      0.1630060760D+02 -0.8870141552D+00
 P   1 1.00       0.000000000000
      0.4355054200D+01  0.1000000000D+01
 P   1 1.00       0.000000000000
      0.1201955400D+01  0.1000000000D+01
 P   1 1.00       0.000000000000
      0.3354196000D+00  0.1000000000D+01
 D   2 1.00       0.000000000000
      0.9214661100D+01 -0.2892091355D+00
      0.2843525100D+01 -0.7372695630D+00
 D   1 1.00       0.000000000000
      0.9955759000D+00 -0.1000000000D+01
 D   1 1.00       0.000000000000
      0.3649441000D+00 -0.1000000000D+01
 F   2 1.00       0.000000000000
      0.2642011500D+01  0.3737238795D+00
      0.7345613000D+00  0.7087681254D+00
 G   1 1.00       0.000000000000
      0.1393100000D+01 -0.1000000000D+01
 ****
      2 0
 S   3 1.00       0.000000000000
      0.1567529270D+02  0.3261158972D-01
      0.3606357800D+01  0.2298046837D+00
      0.1208001600D+01  0.7572083240D+00
 S   1 1.00       0.000000000000
      0.4726794000D+00  0.1000000000D+01
 S   1 1.00       0.000000000000
      0.2018100000D+00  0.1000000000D+01
 P   2 1.00       0.000000000000
      0.2028136500D+01  0.3618361986D+00
      0.5358730000D+00  0.7039303088D+00
 D   1 1.00       0.000000000000
      0.2216512400D+01  0.1000000000D+01
 ****
      3 0
 S   3 1.00       0.000000000000
      0.1567529270D+02  0.3261158972D-01
      0.3606357800D+01  0.2298046837D+00
      0.1208001600D+01  0.7572083240D+00
 S   1 1.00       0.000000000000
      0.4726794000D+00  0.1000000000D+01
 S   1 1.00       0.000000000000
      0.2018100000D+00  0.1000000000D+01
 P   2 1.00       0.000000000000
      0.2028136500D+01  0.3618361986D+00
      0.5358730000D+00  0.7039303088D+00
 D   1 1.00       0.000000000000
      0.2216512400D+01  0.1000000000D+01
 ****

 There are    71 symmetry adapted density basis functions of A   symmetry.
 Leave Link  301 at Tue Jan  9 19:26:22 2018, MaxMem=    33554432 cpu:         0.1
 (Enter /home/chemsoft/gaussian/g09e01/g09/l302.exe)
 NPDir=0 NMtPBC=     1 NCelOv=     1 NCel=       1 NClECP=     1 NCelD=      1
         NCelK=      1 NCelE2=     1 NClLst=     1 CellRange=     0.0.
 One-electron integrals computed using PRISM.
 One-electron integral symmetry used in STVInt
   4 Symmetry operations used in ECPInt.
 ECPInt:  NShTT=      78 NPrTT=     272 LenC2=      79 LenP2D=     271.
 LDataN:  DoStor=T MaxTD1= 4 Len=   56
 NBasis=    24 RedAO= T EigKep=  5.99D-02  NBF=    11     2     4     7
 NBsUse=    24 1.00D-06 EigRej= -1.00D+00 NBFU=    11     2     4     7
 Precomputing XC quadrature grid using
 IXCGrd= 4 IRadAn=           5 IRanWt=          -1 IRanGd=           0 AccXCQ= 0.00D+00.
 Generated NRdTot=       0 NPtTot=           0 NUsed=           0 NTot=          32
 NSgBfM=    25    25    25    25    25 MxSgAt=     3 MxSgA2=     3.
 Leave Link  302 at Tue Jan  9 19:26:22 2018, MaxMem=    33554432 cpu:         0.1
 (Enter /home/chemsoft/gaussian/g09e01/g09/l303.exe)
 DipDrv:  MaxL=1.
 Leave Link  303 at Tue Jan  9 19:26:22 2018, MaxMem=    33554432 cpu:         0.0
 (Enter /home/chemsoft/gaussian/g09e01/g09/l401.exe)
 Initial guess from the checkpoint file:  "h2o.df-bp86.def2svp.chk"
 B after Tr=     0.000000   -0.000000    0.207297
         Rot=   -0.325057    0.627963    0.627963   -0.325057 Ang= 217.94 deg.
 Guess basis will be translated and rotated to current coordinates.
 JPrj=2 DoOrth=T DoCkMO=T.
 Initial guess orbital symmetries:
       Occupied  (A1) (A1) (B2) (A1) (B1)
       Virtual   (A1) (B2) (B2) (A1) (A1) (B1) (B2) (A1) (A2) (A1)
                 (B1) (B2) (B2) (A1) (B1) (A2) (A1) (A1) (B2)
 The electronic state of the initial guess is 1-A1.
 Leave Link  401 at Tue Jan  9 19:26:22 2018, MaxMem=    33554432 cpu:         0.1
 (Enter /home/chemsoft/gaussian/g09e01/g09/l601.exe)
 Copying SCF densities to generalized density rwf, IOpCl= 0 IROHF=0.

 **********************************************************************

            Population analysis using the SCF density.

 **********************************************************************

 Orbital symmetries:
       Occupied  (A1) (A1) (B2) (A1) (B1)
       Virtual   (A1) (B2) (B2) (A1) (A1) (B1) (B2) (A1) (A2) (A1)
                 (B1) (B2) (B2) (A1) (B1) (A2) (A1) (A1) (B2)
 The electronic state is 1-A1.
 Alpha  occ. eigenvalues --  -18.75619  -0.89559  -0.47637  -0.30085  -0.23355
 Alpha virt. eigenvalues --    0.03642   0.11406   0.54257   0.56575   0.85719
 Alpha virt. eigenvalues --    0.86381   0.95153   1.03007   1.26893   1.40840
 Alpha virt. eigenvalues --    1.51382   1.69749   2.17546   2.19625   2.85037
 Alpha virt. eigenvalues --    2.94552   3.07633   3.46481   3.70025
     Molecular Orbital Coefficients:
                           1         2         3         4         5
                        (A1)--O   (A1)--O   (B2)--O   (A1)--O   (B1)--O
     Eigenvalues --   -18.75619  -0.89559  -0.47637  -0.30085  -0.23355
   1 1   O  1S          0.98861   0.27576   0.00000   0.10971   0.00000
   2        2S         -0.04058   0.54774   0.00000   0.21647   0.00000
   3        3S          0.01418   0.25282   0.00000   0.35786   0.00000
   4        4PX         0.00000   0.00000   0.00000   0.00000   0.63438
   5        4PY         0.00000   0.00000   0.50493   0.00000   0.00000
   6        4PZ         0.00314  -0.12640   0.00000   0.55283   0.00000
   7        5PX         0.00000   0.00000   0.00000   0.00000   0.49282
   8        5PY         0.00000   0.00000   0.18841   0.00000   0.00000
   9        5PZ         0.00014  -0.00414   0.00000   0.35959   0.00000
  10        6D 0        0.00001   0.00228   0.00000  -0.01864   0.00000
  11        6D+1        0.00000   0.00000   0.00000   0.00000  -0.01947
  12        6D-1        0.00000   0.00000  -0.02183   0.00000   0.00000
  13        6D+2        0.00164  -0.00681   0.00000   0.00050   0.00000
  14        6D-2        0.00000   0.00000   0.00000   0.00000   0.00000
  15 2   H  1S          0.00297   0.20838  -0.33621  -0.18769   0.00000
  16        2S         -0.00248   0.01403  -0.09697  -0.06238   0.00000
  17        3PX         0.00000   0.00000   0.00000   0.00000   0.03147
  18        3PY         0.00293   0.03203  -0.01381  -0.02170   0.00000
  19        3PZ         0.00211   0.01277  -0.02442   0.01780   0.00000
  20 3   H  1S          0.00297   0.20838   0.33621  -0.18769   0.00000
  21        2S         -0.00248   0.01403   0.09697  -0.06238   0.00000
  22        3PX         0.00000   0.00000   0.00000   0.00000   0.03147
  23        3PY        -0.00293  -0.03203  -0.01381   0.02170   0.00000
  24        3PZ         0.00211   0.01277   0.02442   0.01780   0.00000
                           6         7         8         9        10
                        (A1)--V   (B2)--V   (B2)--V   (A1)--V   (A1)--V
     Eigenvalues --     0.03642   0.11406   0.54257   0.56575   0.85719
   1 1   O  1S          0.11289   0.00000   0.00000  -0.09603  -0.11429
   2        2S          0.20744   0.00000   0.00000  -0.32693  -0.45513
   3        3S          0.93479   0.00000   0.00000   0.31091  -0.12454
   4        4PX         0.00000   0.00000   0.00000   0.00000   0.00000
   5        4PY         0.00000   0.39113  -0.30953   0.00000   0.00000
   6        4PZ        -0.24975   0.00000   0.00000   0.33665  -0.81165
   7        5PX         0.00000   0.00000   0.00000   0.00000   0.00000
   8        5PY         0.00000   0.59190  -0.36652   0.00000   0.00000
   9        5PZ        -0.31024   0.00000   0.00000   0.04087   1.18162
  10        6D 0        0.00830   0.00000   0.00000  -0.01224  -0.00737
  11        6D+1        0.00000   0.00000   0.00000   0.00000   0.00000
  12        6D-1        0.00000  -0.00460  -0.10480   0.00000   0.00000
  13        6D+2       -0.00068   0.00000   0.00000  -0.09781  -0.01059
  14        6D-2        0.00000   0.00000   0.00000   0.00000   0.00000
  15 2   H  1S         -0.14339   0.12929  -0.96173   0.87347   0.39219
  16        2S         -0.80401   1.24947   0.85662  -0.63888   0.04979
  17        3PX         0.00000   0.00000   0.00000   0.00000   0.00000
  18        3PY         0.01385  -0.00881   0.04487  -0.19915   0.04320
  19        3PZ         0.00307  -0.01281   0.12299  -0.01893   0.13962
  20 3   H  1S         -0.14339  -0.12929   0.96173   0.87347   0.39219
  21        2S         -0.80401  -1.24947  -0.85662  -0.63888   0.04979
  22        3PX         0.00000   0.00000   0.00000   0.00000   0.00000
  23        3PY        -0.01385  -0.00881   0.04487   0.19915  -0.04320
  24        3PZ         0.00307   0.01281  -0.12299  -0.01893   0.13962
                          11        12        13        14        15
                        (B1)--V   (B2)--V   (A1)--V   (A2)--V   (A1)--V
     Eigenvalues --     0.86381   0.95153   1.03007   1.26893   1.40840
   1 1   O  1S          0.00000   0.00000  -0.26301   0.00000  -0.07981
   2        2S          0.00000   0.00000  -1.62454   0.00000  -0.65336
   3        3S          0.00000   0.00000   2.89074   0.00000   1.50819
   4        4PX        -0.96661   0.00000   0.00000   0.00000   0.00000
   5        4PY         0.00000  -0.74850   0.00000   0.00000   0.00000
   6        4PZ         0.00000   0.00000   0.05220   0.00000   0.08918
   7        5PX         1.02197   0.00000   0.00000   0.00000   0.00000
   8        5PY         0.00000   1.78889   0.00000   0.00000   0.00000
   9        5PZ         0.00000   0.00000  -0.53570   0.00000  -1.10169
  10        6D 0        0.00000   0.00000   0.03716   0.00000  -0.20916
  11        6D+1        0.00328   0.00000   0.00000   0.00000   0.00000
  12        6D-1        0.00000  -0.01624   0.00000   0.00000   0.00000
  13        6D+2        0.00000   0.00000   0.03724   0.00000   0.02827
  14        6D-2        0.00000   0.00000   0.00000  -0.17235   0.00000
  15 2   H  1S          0.00000   0.38479  -0.46253   0.00000  -0.66355
  16        2S          0.00000   0.83857  -0.57690   0.00000  -0.16466
  17        3PX         0.01645   0.00000   0.00000   0.66323   0.00000
  18        3PY         0.00000   0.23981  -0.01318   0.00000  -0.39173
  19        3PZ         0.00000   0.08873  -0.27425   0.00000   0.51176
  20 3   H  1S          0.00000  -0.38479  -0.46253   0.00000  -0.66355
  21        2S          0.00000  -0.83857  -0.57690   0.00000  -0.16466
  22        3PX         0.01645   0.00000   0.00000  -0.66323   0.00000
  23        3PY         0.00000   0.23981   0.01318   0.00000   0.39173
  24        3PZ         0.00000  -0.08873  -0.27425   0.00000   0.51176
                          16        17        18        19        20
                        (B1)--V   (B2)--V   (B2)--V   (A1)--V   (B1)--V
     Eigenvalues --     1.51382   1.69749   2.17546   2.19625   2.85037
   1 1   O  1S          0.00000   0.00000   0.00000   0.15078   0.00000
   2        2S          0.00000   0.00000   0.00000   0.77724   0.00000
   3        3S          0.00000   0.00000   0.00000   0.71440   0.00000
   4        4PX        -0.01870   0.00000   0.00000   0.00000   0.00912
   5        4PY         0.00000  -0.08901   0.76612   0.00000   0.00000
   6        4PZ         0.00000   0.00000   0.00000  -0.55543   0.00000
   7        5PX        -0.58647   0.00000   0.00000   0.00000  -0.30332
   8        5PY         0.00000   0.93122   0.22333   0.00000   0.00000
   9        5PZ         0.00000   0.00000   0.00000  -0.23109   0.00000
  10        6D 0        0.00000   0.00000   0.00000  -0.10997   0.00000
  11        6D+1       -0.21068   0.00000   0.00000   0.00000   1.02595
  12        6D-1        0.00000   0.02085   0.18602   0.00000   0.00000
  13        6D+2        0.00000   0.00000   0.00000   0.29137   0.00000
  14        6D-2        0.00000   0.00000   0.00000   0.00000   0.00000
  15 2   H  1S          0.00000   0.40340   0.25629  -0.42852   0.00000
  16        2S          0.00000   0.10337   0.34480  -0.21060   0.00000
  17        3PX         0.74198   0.00000   0.00000   0.00000   0.41111
  18        3PY         0.00000  -0.46494   0.66902  -0.75997   0.00000
  19        3PZ         0.00000   0.65071   0.56888  -0.45028   0.00000
  20 3   H  1S          0.00000  -0.40340  -0.25629  -0.42852   0.00000
  21        2S          0.00000  -0.10337  -0.34480  -0.21060   0.00000
  22        3PX         0.74198   0.00000   0.00000   0.00000   0.41111
  23        3PY         0.00000  -0.46494   0.66902   0.75997   0.00000
  24        3PZ         0.00000  -0.65071  -0.56888  -0.45028   0.00000
                          21        22        23        24
                        (A2)--V   (A1)--V   (A1)--V   (B2)--V
     Eigenvalues --     2.94552   3.07633   3.46481   3.70025
   1 1   O  1S          0.00000   0.01221   0.08380   0.00000
   2        2S          0.00000  -0.04043   0.23219   0.00000
   3        3S          0.00000   0.72389   1.87888   0.00000
   4        4PX         0.00000   0.00000   0.00000   0.00000
   5        4PY         0.00000   0.00000   0.00000  -0.50598
   6        4PZ         0.00000  -0.07120  -0.38925   0.00000
   7        5PX         0.00000   0.00000   0.00000   0.00000
   8        5PY         0.00000   0.00000   0.00000  -1.18513
   9        5PZ         0.00000  -0.62582  -0.79221   0.00000
  10        6D 0        0.00000   1.06567  -0.07850   0.00000
  11        6D+1        0.00000   0.00000   0.00000   0.00000
  12        6D-1        0.00000   0.00000   0.00000   1.32797
  13        6D+2        0.00000  -0.00409  -1.18300   0.00000
  14        6D-2        1.06418   0.00000   0.00000   0.00000
  15 2   H  1S          0.00000  -0.41073  -1.14504  -1.10005
  16        2S          0.00000  -0.09341  -0.23517  -0.28207
  17        3PX         0.40063   0.00000   0.00000   0.00000
  18        3PY         0.00000  -0.44664  -0.62407  -0.65461
  19        3PZ         0.00000   0.29512  -0.52836  -0.46670
  20 3   H  1S          0.00000  -0.41073  -1.14504   1.10005
  21        2S          0.00000  -0.09341  -0.23517   0.28207
  22        3PX        -0.40063   0.00000   0.00000   0.00000
  23        3PY         0.00000   0.44664   0.62407  -0.65461
  24        3PZ         0.00000   0.29512  -0.52836   0.46670
     Density Matrix:
                           1         2         3         4         5
   1 1   O  1S          2.13088
   2        2S          0.26934   0.69706
   3        3S          0.24600   0.43074   0.38436
   4        4PX         0.00000   0.00000   0.00000   0.80488
   5        4PY         0.00000   0.00000   0.00000   0.00000   0.50991
   6        4PZ         0.05779   0.10061   0.33184   0.00000   0.00000
   7        5PX         0.00000   0.00000   0.00000   0.62527   0.00000
   8        5PY         0.00000   0.00000   0.00000   0.00000   0.19027
   9        5PZ         0.07690   0.15114   0.25528   0.00000   0.00000
  10        6D 0       -0.00281  -0.00557  -0.01219   0.00000   0.00000
  11        6D+1        0.00000   0.00000   0.00000  -0.02470   0.00000
  12        6D-1        0.00000   0.00000   0.00000   0.00000  -0.02204
  13        6D+2       -0.00041  -0.00737  -0.00304   0.00000   0.00000
  14        6D-2        0.00000   0.00000   0.00000   0.00000   0.00000
  15 2   H  1S          0.07961   0.14678  -0.02888   0.00000  -0.33952
  16        2S         -0.01084  -0.01143  -0.03762   0.00000  -0.09792
  17        3PX         0.00000   0.00000   0.00000   0.03992   0.00000
  18        3PY         0.01870   0.02545   0.00074   0.00000  -0.01394
  19        3PZ         0.01512   0.02153   0.01926   0.00000  -0.02466
  20 3   H  1S          0.07961   0.14678  -0.02888   0.00000   0.33952
  21        2S         -0.01084  -0.01143  -0.03762   0.00000   0.09792
  22        3PX         0.00000   0.00000   0.00000   0.03992   0.00000
  23        3PY        -0.01870  -0.02545  -0.00074   0.00000  -0.01394
  24        3PZ         0.01512   0.02153   0.01926   0.00000   0.02466
                           6         7         8         9        10
   6        4PZ         0.64321
   7        5PX         0.00000   0.48575
   8        5PY         0.00000   0.00000   0.07100
   9        5PZ         0.39863   0.00000   0.00000   0.25865
  10        6D 0       -0.02118   0.00000   0.00000  -0.01342   0.00071
  11        6D+1        0.00000  -0.01919   0.00000   0.00000   0.00000
  12        6D-1        0.00000   0.00000  -0.00823   0.00000   0.00000
  13        6D+2        0.00229   0.00000   0.00000   0.00042  -0.00005
  14        6D-2        0.00000   0.00000   0.00000   0.00000   0.00000
  15 2   H  1S         -0.26018   0.00000  -0.12669  -0.13670   0.00794
  16        2S         -0.07254   0.00000  -0.03654  -0.04498   0.00239
  17        3PX         0.00000   0.03102   0.00000   0.00000   0.00000
  18        3PY        -0.03208   0.00000  -0.00520  -0.01587   0.00095
  19        3PZ         0.01647   0.00000  -0.00920   0.01270  -0.00061
  20 3   H  1S         -0.26018   0.00000   0.12669  -0.13670   0.00794
  21        2S         -0.07254   0.00000   0.03654  -0.04498   0.00239
  22        3PX         0.00000   0.03102   0.00000   0.00000   0.00000
  23        3PY         0.03208   0.00000  -0.00520   0.01587  -0.00095
  24        3PZ         0.01647   0.00000   0.00920   0.01270  -0.00061
                          11        12        13        14        15
  11        6D+1        0.00076
  12        6D-1        0.00000   0.00095
  13        6D+2        0.00000   0.00000   0.00010
  14        6D-2        0.00000   0.00000   0.00000   0.00000
  15 2   H  1S          0.00000   0.01468  -0.00302   0.00000   0.38339
  16        2S          0.00000   0.00423  -0.00026   0.00000   0.09445
  17        3PX        -0.00123   0.00000   0.00000   0.00000   0.00000
  18        3PY         0.00000   0.00060  -0.00045   0.00000   0.03080
  19        3PZ         0.00000   0.00107  -0.00015   0.00000   0.01507
  20 3   H  1S          0.00000  -0.01468  -0.00302   0.00000  -0.06875
  21        2S          0.00000  -0.00423  -0.00026   0.00000  -0.03595
  22        3PX        -0.00123   0.00000   0.00000   0.00000   0.00000
  23        3PY         0.00000   0.00060   0.00045   0.00000  -0.01223
  24        3PZ         0.00000  -0.00107  -0.00015   0.00000  -0.01777
                          16        17        18        19        20
  16        2S          0.02699
  17        3PX         0.00000   0.00198
  18        3PY         0.00627   0.00000   0.00339
  19        3PZ         0.00286   0.00000   0.00073   0.00216
  20 3   H  1S         -0.03595   0.00000   0.01223  -0.01777   0.38339
  21        2S         -0.01062   0.00000   0.00091  -0.00661   0.09445
  22        3PX         0.00000   0.00198   0.00000   0.00000   0.00000
  23        3PY        -0.00091   0.00000  -0.00263   0.00062  -0.03080
  24        3PZ        -0.00661   0.00000  -0.00062  -0.00022   0.01507
                          21        22        23        24
  21        2S          0.02699
  22        3PX         0.00000   0.00198
  23        3PY        -0.00627   0.00000   0.00339
  24        3PZ         0.00286   0.00000  -0.00073   0.00216
    Full Mulliken population analysis:
                           1         2         3         4         5
   1 1   O  1S          2.13088
   2        2S         -0.09266   0.69706
   3        3S         -0.03884   0.33983   0.38436
   4        4PX         0.00000   0.00000   0.00000   0.80488
   5        4PY         0.00000   0.00000   0.00000   0.00000   0.50991
   6        4PZ         0.00000   0.00000   0.00000   0.00000   0.00000
   7        5PX         0.00000   0.00000   0.00000   0.31398   0.00000
   8        5PY         0.00000   0.00000   0.00000   0.00000   0.09554
   9        5PZ         0.00000   0.00000   0.00000   0.00000   0.00000
  10        6D 0        0.00000   0.00000   0.00000   0.00000   0.00000
  11        6D+1        0.00000   0.00000   0.00000   0.00000   0.00000
  12        6D-1        0.00000   0.00000   0.00000   0.00000   0.00000
  13        6D+2        0.00000   0.00000   0.00000   0.00000   0.00000
  14        6D-2        0.00000   0.00000   0.00000   0.00000   0.00000
  15 2   H  1S         -0.00390   0.04917  -0.01490   0.00000   0.07899
  16        2S          0.00068  -0.00450  -0.02609   0.00000   0.00845
  17        3PX         0.00000   0.00000   0.00000   0.00750   0.00000
  18        3PY        -0.00144   0.00918   0.00020   0.00000   0.00274
  19        3PZ        -0.00082   0.00549   0.00367   0.00000   0.00671
  20 3   H  1S         -0.00390   0.04917  -0.01490   0.00000   0.07899
  21        2S          0.00068  -0.00450  -0.02609   0.00000   0.00845
  22        3PX         0.00000   0.00000   0.00000   0.00750   0.00000
  23        3PY        -0.00144   0.00918   0.00020   0.00000   0.00274
  24        3PZ        -0.00082   0.00549   0.00367   0.00000   0.00671
                           6         7         8         9        10
   6        4PZ         0.64321
   7        5PX         0.00000   0.48575
   8        5PY         0.00000   0.00000   0.07100
   9        5PZ         0.20017   0.00000   0.00000   0.25865
  10        6D 0        0.00000   0.00000   0.00000   0.00000   0.00071
  11        6D+1        0.00000   0.00000   0.00000   0.00000   0.00000
  12        6D-1        0.00000   0.00000   0.00000   0.00000   0.00000
  13        6D+2        0.00000   0.00000   0.00000   0.00000   0.00000
  14        6D-2        0.00000   0.00000   0.00000   0.00000   0.00000
  15 2   H  1S          0.04280   0.00000   0.06447   0.04919   0.00000
  16        2S          0.00443   0.00000   0.01162   0.01011   0.00000
  17        3PX         0.00000   0.01142   0.00000   0.00000   0.00000
  18        3PY         0.00872   0.00000  -0.00022   0.00365   0.00014
  19        3PZ        -0.00007   0.00000   0.00211   0.00261   0.00013
  20 3   H  1S          0.04280   0.00000   0.06447   0.04919   0.00000
  21        2S          0.00443   0.00000   0.01162   0.01011   0.00000
  22        3PX         0.00000   0.01142   0.00000   0.00000   0.00000
  23        3PY         0.00872   0.00000  -0.00022   0.00365   0.00014
  24        3PZ        -0.00007   0.00000   0.00211   0.00261   0.00013
                          11        12        13        14        15
  11        6D+1        0.00076
  12        6D-1        0.00000   0.00095
  13        6D+2        0.00000   0.00000   0.00010
  14        6D-2        0.00000   0.00000   0.00000   0.00000
  15 2   H  1S          0.00000   0.00275   0.00040   0.00000   0.38339
  16        2S          0.00000   0.00008   0.00000   0.00000   0.06468
  17        3PX         0.00023   0.00000   0.00000   0.00000   0.00000
  18        3PY         0.00000   0.00012   0.00000   0.00000   0.00000
  19        3PZ         0.00000   0.00001   0.00003   0.00000   0.00000
  20 3   H  1S          0.00000   0.00275   0.00040   0.00000  -0.00756
  21        2S          0.00000   0.00008   0.00000   0.00000  -0.01063
  22        3PX         0.00023   0.00000   0.00000   0.00000   0.00000
  23        3PY         0.00000   0.00012   0.00000   0.00000   0.00157
  24        3PZ         0.00000   0.00001   0.00003   0.00000   0.00000
                          16        17        18        19        20
  16        2S          0.02699
  17        3PX         0.00000   0.00198
  18        3PY         0.00000   0.00000   0.00339
  19        3PZ         0.00000   0.00000   0.00000   0.00216
  20 3   H  1S         -0.01063   0.00000   0.00157  -0.00000   0.38339
  21        2S         -0.00629   0.00000   0.00014  -0.00000   0.06468
  22        3PX         0.00000   0.00006   0.00000   0.00000   0.00000
  23        3PY         0.00014   0.00000   0.00050  -0.00000   0.00000
  24        3PZ         0.00000   0.00000   0.00000  -0.00001   0.00000
                          21        22        23        24
  21        2S          0.02699
  22        3PX         0.00000   0.00198
  23        3PY         0.00000   0.00000   0.00339
  24        3PZ         0.00000   0.00000   0.00000   0.00216
     Gross orbital populations:
                           1
   1 1   O  1S          1.98842
   2        2S          1.06290
   3        3S          0.61113
   4        4PX         1.13386
   5        4PY         0.79923
   6        4PZ         0.95514
   7        5PX         0.82255
   8        5PY         0.32250
   9        5PZ         0.58995
  10        6D 0        0.00125
  11        6D+1        0.00121
  12        6D-1        0.00686
  13        6D+2        0.00097
  14        6D-2        0.00000
  15 2   H  1S          0.70043
  16        2S          0.07968
  17        3PX         0.02119
  18        3PY         0.02870
  19        3PZ         0.02202
  20 3   H  1S          0.70043
  21        2S          0.07968
  22        3PX         0.02119
  23        3PY         0.02870
  24        3PZ         0.02202
          Condensed to atoms (all electrons):
               1          2          3
     1  O    7.624249   0.335858   0.335858
     2  H    0.335858   0.547277  -0.031118
     3  H    0.335858  -0.031118   0.547277
 Mulliken charges:
               1
     1  O   -0.295965
     2  H    0.147983
     3  H    0.147983
 Sum of Mulliken charges =  -0.00000
 Mulliken charges with hydrogens summed into heavy atoms:
               1
     1  O   -0.000000
 Electronic spatial extent (au):  <R**2>=             18.8201
 Charge=             -0.0000 electrons
 Dipole moment (field-independent basis, Debye):
    X=              0.0000    Y=              0.0000    Z=             -1.8793  Tot=              1.8793
 Quadrupole moment (field-independent basis, Debye-Ang):
   XX=             -6.9784   YY=             -4.1534   ZZ=             -6.0900
   XY=              0.0000   XZ=             -0.0000   YZ=             -0.0000
 Traceless Quadrupole moment (field-independent basis, Debye-Ang):
   XX=             -1.2378   YY=              1.5872   ZZ=             -0.3494
   XY=              0.0000   XZ=             -0.0000   YZ=             -0.0000
 Octapole moment (field-independent basis, Debye-Ang**2):
  XXX=             -0.0000  YYY=             -0.0000  ZZZ=             -0.9807  XYY=              0.0000
  XXY=             -0.0000  XXZ=             -0.2740  XZZ=             -0.0000  YZZ=             -0.0000
  YYZ=             -1.0695  XYZ=             -0.0000
 Hexadecapole moment (field-independent basis, Debye-Ang**3):
 XXXX=             -4.8117 YYYY=             -5.9234 ZZZZ=             -5.9238 XXXY=             -0.0000
 XXXZ=              0.0000 YYYX=             -0.0000 YYYZ=              0.0000 ZZZX=              0.0000
 ZZZY=              0.0000 XXYY=             -2.0700 XXZZ=             -1.8273 YYZZ=             -1.7387
 XXYZ=              0.0000 YYXZ=             -0.0000 ZZXY=             -0.0000
 N-N= 9.253567565403D+00 E-N=-1.990375710324D+02  KE= 7.583615259968D+01
 Symmetry A1   KE= 6.768072214120D+01
 Symmetry A2   KE= 0.000000000000D+00
 Symmetry B1   KE= 4.598390386417D+00
 Symmetry B2   KE= 3.557040072069D+00
 Orbital energies and kinetic energies (alpha):
                                 1                 2
   1         (A1)--O         -18.756192         28.751715
   2         (A1)--O          -0.895593          2.803145
   3         (B2)--O          -0.476367          1.778520
   4         (A1)--O          -0.300850          2.285501
   5         (B1)--O          -0.233548          2.299195
   6         (A1)--V           0.036421          1.052644
   7         (B2)--V           0.114061          1.105557
   8         (B2)--V           0.542574          1.945017
   9         (A1)--V           0.565748          2.280358
  10         (A1)--V           0.857189          3.393470
  11         (B1)--V           0.863811          3.669936
  12         (B2)--V           0.951532          2.806849
  13         (A1)--V           1.030071          3.514828
  14         (A2)--V           1.268930          2.128239
  15         (A1)--V           1.408398          2.428188
  16         (B1)--V           1.513820          2.335877
  17         (B2)--V           1.697487          2.463361
  18         (B2)--V           2.175458          4.214044
  19         (A1)--V           2.196247          4.429068
  20         (B1)--V           2.850371          4.432199
  21         (A2)--V           2.945525          4.575253
  22         (A1)--V           3.076325          4.713337
  23         (A1)--V           3.464806          5.613094
  24         (B2)--V           3.700254          5.872490
 Total kinetic energy from orbitals= 7.583615259968D+01
 No NMR shielding tensors so no spin-rotation constants.
 Leave Link  601 at Tue Jan  9 19:26:23 2018, MaxMem=    33554432 cpu:         0.1
 (Enter /home/chemsoft/gaussian/g09e01/g09/l9999.exe)

 This type of calculation cannot be archived.

 Writing a WFNX file to "h2o.df-bp86.def2svp.wfx"


 QUHEN THE CAUSS IS TAKEN AWAY THE EFFECT WANISHETH.
 -- PROVERBS AND REASONS OF THE YEAR 1585
           AS REPRINTED IN PAISLEY MAGAZINE 1828.
 Job cpu time:       0 days  0 hours  0 minutes  0.7 seconds.
 File lengths (MBytes):  RWF=      5 Int=      0 D2E=      0 Chk=      1 Scr=      1
 Normal termination of Gaussian 09 at Tue Jan  9 19:26:23 2018.
