 Entering Gaussian System, Link 0=g09
 Input=h2o.mp4.def2svp.nbo6.freq.gjf
 Output=h2o.mp4.def2svp.nbo6.freq.log
 Initial command:
 /home/chemsoft/gaussian/g09e01/g09/l1.exe "/scr/martin/g09job990/Gau-3084.inp" -scrdir="/scr/martin/g09job990/"
 Entering Link 1 = /home/chemsoft/gaussian/g09e01/g09/l1.exe PID=      3085.
  
 Copyright (c) 1988,1990,1992,1993,1995,1998,2003,2009,2015,
            Gaussian, Inc.  All Rights Reserved.
  
 This is part of the Gaussian(R) 09 program.  It is based on
 the Gaussian(R) 03 system (copyright 2003, Gaussian, Inc.),
 the Gaussian(R) 98 system (copyright 1998, Gaussian, Inc.),
 the Gaussian(R) 94 system (copyright 1995, Gaussian, Inc.),
 the Gaussian 92(TM) system (copyright 1992, Gaussian, Inc.),
 the Gaussian 90(TM) system (copyright 1990, Gaussian, Inc.),
 the Gaussian 88(TM) system (copyright 1988, Gaussian, Inc.),
 the Gaussian 86(TM) system (copyright 1986, Carnegie Mellon
 University), and the Gaussian 82(TM) system (copyright 1983,
 Carnegie Mellon University). Gaussian is a federally registered
 trademark of Gaussian, Inc.
  
 This software contains proprietary and confidential information,
 including trade secrets, belonging to Gaussian, Inc.
  
 This software is provided under written license and may be
 used, copied, transmitted, or stored only in accord with that
 written license.
  
 The following legend is applicable only to US Government
 contracts under FAR:
  
                    RESTRICTED RIGHTS LEGEND
  
 Use, reproduction and disclosure by the US Government is
 subject to restrictions as set forth in subparagraphs (a)
 and (c) of the Commercial Computer Software - Restricted
 Rights clause in FAR 52.227-19.
  
 Gaussian, Inc.
 340 Quinnipiac St., Bldg. 40, Wallingford CT 06492
  
  
 ---------------------------------------------------------------
 Warning -- This program may not be used in any manner that
 competes with the business of Gaussian, Inc. or will provide
 assistance to any competitor of Gaussian, Inc.  The licensee
 of this program is prohibited from giving any competitor of
 Gaussian, Inc. access to this program.  By using this program,
 the user acknowledges that Gaussian, Inc. is engaged in the
 business of creating and licensing software in the field of
 computational chemistry and represents and warrants to the
 licensee that it is not a competitor of Gaussian, Inc. and that
 it will not use this program in any manner prohibited above.
 ---------------------------------------------------------------
  

 Cite this work as:
 Gaussian 09, Revision E.01,
 M. J. Frisch, G. W. Trucks, H. B. Schlegel, G. E. Scuseria, 
 M. A. Robb, J. R. Cheeseman, G. Scalmani, V. Barone, B. Mennucci, 
 G. A. Petersson, H. Nakatsuji, M. Caricato, X. Li, H. P. Hratchian, 
 A. F. Izmaylov, J. Bloino, G. Zheng, J. L. Sonnenberg, M. Hada, 
 M. Ehara, K. Toyota, R. Fukuda, J. Hasegawa, M. Ishida, T. Nakajima, 
 Y. Honda, O. Kitao, H. Nakai, T. Vreven, J. A. Montgomery, Jr., 
 J. E. Peralta, F. Ogliaro, M. Bearpark, J. J. Heyd, E. Brothers, 
 K. N. Kudin, V. N. Staroverov, T. Keith, R. Kobayashi, J. Normand, 
 K. Raghavachari, A. Rendell, J. C. Burant, S. S. Iyengar, J. Tomasi, 
 M. Cossi, N. Rega, J. M. Millam, M. Klene, J. E. Knox, J. B. Cross, 
 V. Bakken, C. Adamo, J. Jaramillo, R. Gomperts, R. E. Stratmann, 
 O. Yazyev, A. J. Austin, R. Cammi, C. Pomelli, J. W. Ochterski, 
 R. L. Martin, K. Morokuma, V. G. Zakrzewski, G. A. Voth, 
 P. Salvador, J. J. Dannenberg, S. Dapprich, A. D. Daniels, 
 O. Farkas, J. B. Foresman, J. V. Ortiz, J. Cioslowski, 
 and D. J. Fox, Gaussian, Inc., Wallingford CT, 2013.
 
 ******************************************
 Gaussian 09:  ES64L-G09RevE.01 30-Nov-2015
                 9-Jan-2018 
 ******************************************
 %nproc=8
 Will use up to    8 processors via shared memory.
 %mem=32000MB
 %oldchk=h2o.mp4.def2svp.nbo6.chk
 %chk=h2o.mp4.def2svp.nbo6.freq.chk
 Copying data from "h2o.mp4.def2svp.nbo6.chk" to current chk file "h2o.mp4.def2svp.nbo6.freq.chk".
 ----------------------------------------------------------------------
 #p MP4/def2SVP freq geom=check guess=read gfinput gfoldprint iop(6/7=3
 ) scrf(pcm,solvent=toluene) pop=full pop=nbo6 pop=allorbitals symmetry
 =loose
 ----------------------------------------------------------------------

 Warning:  this job cannot use analytic gradients
           and so will do many energy evaluations.

 1/10=4,29=2,30=1,38=21/1,10,3;
 2/12=2,17=4,18=3,40=1/2;
 3/5=43,7=101,11=9,14=-4,16=1,24=11,25=1,30=1,70=2201,72=13,116=-2/1,2,3;
 4/5=1,69=2/1;
 5/5=2,38=6,53=13,98=1/2;
 8/6=4,9=120000,10=1/1,4;
 9/5=5/13;
 6/7=3,40=1,87=-1,113=1,114=1,124=3103/1,12;
 1/38=20/10(3);
 7/8=1,25=1,44=-1/16;
 1/10=4,30=1,38=20/3;
 99//99;
 3/5=43,7=101,11=9,14=-2,16=1,25=1,30=1,70=2205,72=13/1,2,3;
 4/5=5,16=3,69=2/1;
 5/5=2,38=5,53=13,98=1/2;
 8/6=4,9=120000,10=1/1,4;
 9/5=5/13;
 6/7=3,40=1,87=-1,113=1,114=1,124=3103/1,12;
 1/38=20/10(-6);
 7/8=1,25=1,44=-1/16;
 1/10=4,30=1,38=20/3;
 99//99;
 Leave Link    1 at Tue Jan  9 19:11:01 2018, MaxMem=  4194304000 cpu:         0.7
 (Enter /home/chemsoft/gaussian/g09e01/g09/l101.exe)
 ------------------
 Water MP4/def2-SVP
 ------------------
 Structure from the checkpoint file:  "h2o.mp4.def2svp.nbo6.freq.chk"
 Charge =  0 Multiplicity = 1
 Z-Matrix found in file.
 O
 H,1,bond
 H,1,bond,2,angle
      Variables:
 bond=0.96397892
 angle=102.19772382
 Recover connectivity data from disk.
 NAtoms=      3 NQM=        3 NQMF=       0 NMMI=      0 NMMIF=      0
                NMic=       0 NMicF=      0.
                    Isotopes and Nuclear Properties:
 (Nuclear quadrupole moments (NQMom) in fm**2, nuclear magnetic moments (NMagM)
  in nuclear magnetons)

  Atom         1           2           3
 IAtWgt=          16           1           1
 AtmWgt=  15.9949146   1.0078250   1.0078250
 NucSpn=           0           1           1
 AtZEff=  -5.6000000  -1.0000000  -1.0000000
 NQMom=    0.0000000   0.0000000   0.0000000
 NMagM=    0.0000000   2.7928460   2.7928460
 AtZNuc=   8.0000000   1.0000000   1.0000000
 Leave Link  101 at Tue Jan  9 19:11:01 2018, MaxMem=  4194304000 cpu:         0.4
 (Enter /home/chemsoft/gaussian/g09e01/g09/l110.exe)
 Numerical differentiation of energy to produce force constants.
 Step-Size= 0.010000 angstroms.
 Leave EnFreq:  IXYZ= 0 JXYZ= 0 IStep= 0.
 Leave Link  110 at Tue Jan  9 19:11:01 2018, MaxMem=  4194304000 cpu:         0.0
 (Enter /home/chemsoft/gaussian/g09e01/g09/l103.exe)

 GradGradGradGradGradGradGradGradGradGradGradGradGradGradGradGradGradGrad
 Berny optimization.
 Initialization pass.
                       ----------------------------
                       !    Initial Parameters    !
                       ! (Angstroms and Degrees)  !
 ----------------------                            ----------------------
 !      Name          Value   Derivative information (Atomic Units)     !
 ------------------------------------------------------------------------
 !      bond         0.964    calculate D2E/DX2 analytically            !
 !      angle      102.1977   calculate D2E/DX2 analytically            !
 ------------------------------------------------------------------------
 Trust Radius=3.00D-01 FncErr=1.00D-07 GrdErr=1.00D-07
 Number of steps in this run=      2 maximum allowed number of steps=      2.
 GradGradGradGradGradGradGradGradGradGradGradGradGradGradGradGradGradGrad

 Leave Link  103 at Tue Jan  9 19:11:01 2018, MaxMem=  4194304000 cpu:         0.1
 (Enter /home/chemsoft/gaussian/g09e01/g09/l202.exe)
                          Input orientation:                          
 ---------------------------------------------------------------------
 Center     Atomic      Atomic             Coordinates (Angstroms)
 Number     Number       Type             X           Y           Z
 ---------------------------------------------------------------------
      1          8           0        0.000000   -0.000000   -0.000000
      2          1           0       -0.000000   -0.000000    0.963979
      3          1           0        0.942216    0.000000   -0.203675
 ---------------------------------------------------------------------
                    Distance matrix (angstroms):
                    1          2          3
     1  O    0.000000
     2  H    0.963979   0.000000
     3  H    0.963979   1.500396   0.000000
 Stoichiometry    H2O
 Framework group  C2V[C2(O),SGV(H2)]
 Deg. of freedom     2
 Full point group                 C2V     NOp   4
 RotChk:  IX=0 Diff= 6.60D-16
 Largest Abelian subgroup         C2V     NOp   4
 Largest concise Abelian subgroup C2      NOp   2
                         Standard orientation:                         
 ---------------------------------------------------------------------
 Center     Atomic      Atomic             Coordinates (Angstroms)
 Number     Number       Type             X           Y           Z
 ---------------------------------------------------------------------
      1          8           0        0.000000    0.000000    0.121072
      2          1           0        0.000000    0.750198   -0.484286
      3          1           0       -0.000000   -0.750198   -0.484286
 ---------------------------------------------------------------------
 Rotational constants (GHZ):    770.4115941    445.5026472    282.2735296
 Leave Link  202 at Tue Jan  9 19:11:01 2018, MaxMem=  4194304000 cpu:         0.3
 (Enter /home/chemsoft/gaussian/g09e01/g09/l301.exe)
 Standard basis: def2SVP (5D, 7F)
 ======================================================================================================
                                       Pseudopotential Parameters
 ======================================================================================================
  Center     Atomic      Valence      Angular      Power
  Number     Number     Electrons     Momentum     of R      Exponent        Coefficient   SO-Coeffient
 ======================================================================================================
    1          8
                                   No pseudopotential on this center.
    2          1
                                   No pseudopotential on this center.
    3          1
                                   No pseudopotential on this center.
 ======================================================================================================
 Ernie: Thresh=  0.10000D-02 Tol=  0.10000D-05 Strict=F.
 AO basis set in the form of general basis input (Overlap normalization):
      1 0
 S   5 1.00       0.000000000000
      0.2266176779D+04 -0.5389350392D-02
      0.3408701019D+03 -0.4023472139D-01
      0.7736313517D+02 -0.1800818421D+00
      0.2147964494D+02 -0.4682885766D+00
      0.6658943312D+01 -0.4469261716D+00
 S   1 1.00       0.000000000000
      0.8097597567D+00  0.1000000000D+01
 S   1 1.00       0.000000000000
      0.2553077223D+00  0.1000000000D+01
 P   3 1.00       0.000000000000
      0.1772150432D+02  0.6263024876D-01
      0.3863550544D+01  0.3333113848D+00
      0.1048092088D+01  0.7414863831D+00
 P   1 1.00       0.000000000000
      0.2764154441D+00  0.1000000000D+01
 D   1 1.00       0.000000000000
      0.1200000000D+01  0.1000000000D+01
 ****
      2 0
 S   3 1.00       0.000000000000
      0.1301070100D+02  0.3348548481D-01
      0.1962257200D+01  0.2347218709D+00
      0.4445379600D+00  0.8137702853D+00
 S   1 1.00       0.000000000000
      0.1219496200D+00  0.1000000000D+01
 P   1 1.00       0.000000000000
      0.8000000000D+00  0.1000000000D+01
 ****
      3 0
 S   3 1.00       0.000000000000
      0.1301070100D+02  0.3348548481D-01
      0.1962257200D+01  0.2347218709D+00
      0.4445379600D+00  0.8137702853D+00
 S   1 1.00       0.000000000000
      0.1219496200D+00  0.1000000000D+01
 P   1 1.00       0.000000000000
      0.8000000000D+00  0.1000000000D+01
 ****

 ***********************************************************************************************************************************
 *             ATOMIC CENTER             *        ATOMIC ORBITAL       *                     GAUSSIAN FUNCTIONS                    *
 ***********************************************************************************************************************************
 *                                       * FUNCTION    SHELL    SCALE  *                                                           *
 *    ATOM   X-COORD  Y-COORD  Z-COORD   *  NUMBER     TYPE     FACTOR *  EXPONENT    S-COEF      P-COEF      D-COEF      F-COEF   *
 ***********************************************************************************************************************************
 *     O      0.00000  0.00000  0.22879                                                                                            *
+                                                1   S           1.00                                                               
+                                                                      0.226618D+04-.126159D+010.000000D+000.000000D+000.000000D+00 
 *                                                                     0.340870D+03-.227485D+010.000000D+000.000000D+000.000000D+00*
 *                                                                     0.773631D+02-.334796D+010.000000D+000.000000D+000.000000D+00*
 *                                                                     0.214796D+02-.333000D+010.000000D+000.000000D+000.000000D+00*
 *                                                                     0.665894D+01-.132038D+010.000000D+000.000000D+000.000000D+00*
 *                                               2   S           1.00                                                              *
+                                                                      0.809760D+000.608383D+000.000000D+000.000000D+000.000000D+00 
 *                                               3   S           1.00                                                              *
+                                                                      0.255308D+000.255981D+000.000000D+000.000000D+000.000000D+00 
 *                                           4-  6   P           1.00                                                              *
+                                                                      0.177215D+020.000000D+000.324601D+010.000000D+000.000000D+00 
 *                                                                     0.386355D+010.000000D+000.257350D+010.000000D+000.000000D+00*
 *                                                                     0.104809D+010.000000D+000.112084D+010.000000D+000.000000D+00*
 *                                           7-  9   P           1.00                                                              *
+                                                                      0.276415D+000.000000D+000.285689D+000.000000D+000.000000D+00 
 *                                          10- 14   D           1.00                                                              *
+                                                                      0.120000D+010.000000D+000.000000D+000.226452D+010.000000D+00 
 *---------------------------------------------------------------------------------------------------------------------------------*
 *     H      0.00000  1.41767 -0.91517                                                                                            *
+                                               15   S           1.00                                                               
+                                                                      0.130107D+020.163490D+000.000000D+000.000000D+000.000000D+00 
 *                                                                     0.196226D+010.277352D+000.000000D+000.000000D+000.000000D+00*
 *                                                                     0.444538D+000.315750D+000.000000D+000.000000D+000.000000D+00*
 *                                              16   S           1.00                                                              *
+                                                                      0.121950D+000.147077D+000.000000D+000.000000D+000.000000D+00 
 *                                          17- 19   P           1.00                                                              *
+                                                                      0.800000D+000.000000D+000.107846D+010.000000D+000.000000D+00 
 *---------------------------------------------------------------------------------------------------------------------------------*
 *     H     -0.00000 -1.41767 -0.91517                                                                                            *
+                                               20   S           1.00                                                               
+                                                                      0.130107D+020.163490D+000.000000D+000.000000D+000.000000D+00 
 *                                                                     0.196226D+010.277352D+000.000000D+000.000000D+000.000000D+00*
 *                                                                     0.444538D+000.315750D+000.000000D+000.000000D+000.000000D+00*
 *                                              21   S           1.00                                                              *
+                                                                      0.121950D+000.147077D+000.000000D+000.000000D+000.000000D+00 
 *                                          22- 24   P           1.00                                                              *
+                                                                      0.800000D+000.000000D+000.107846D+010.000000D+000.000000D+00 
 ***********************************************************************************************************************************
 There are    12 symmetry adapted cartesian basis functions of A1  symmetry.
 There are     2 symmetry adapted cartesian basis functions of A2  symmetry.
 There are     4 symmetry adapted cartesian basis functions of B1  symmetry.
 There are     7 symmetry adapted cartesian basis functions of B2  symmetry.
 There are    11 symmetry adapted basis functions of A1  symmetry.
 There are     2 symmetry adapted basis functions of A2  symmetry.
 There are     4 symmetry adapted basis functions of B1  symmetry.
 There are     7 symmetry adapted basis functions of B2  symmetry.
    24 basis functions,    39 primitive gaussians,    25 cartesian basis functions
     5 alpha electrons        5 beta electrons
       nuclear repulsion energy         9.1359079410 Hartrees.
 IExCor=    0 DFT=F Ex=HF Corr=None ExCW=0 ScaHFX=  1.000000
 ScaDFX=  1.000000  1.000000  1.000000  1.000000 ScalE2=  1.000000  1.000000
 IRadAn=      0 IRanWt=     -1 IRanGd=            0 ICorTp=0 IEmpDi=  4
 NAtoms=    3 NActive=    3 NUniq=    2 SFac= 2.25D+00 NAtFMM=   60 NAOKFM=F Big=F
 Integral buffers will be    131072 words long.
 Raffenetti 1 integral format.
 Two-electron integral symmetry is turned on.
 ------------------------------------------------------------------------------
 Polarizable Continuum Model (PCM)
 =================================
 Model                : PCM (using non-symmetric T matrix).
 Atomic radii         : UFF (Universal Force Field).
 Polarization charges : Total charges.
 Charge compensation  : None.
 Solution method      : On-the-fly selection.
 Cavity type          : Scaled VdW (van der Waals Surface) (Alpha=1.100).
 Cavity algorithm     : GePol (No added spheres)
                        Default sphere list used, NSphG=    3.
                        Lebedev-Laikov grids with approx.  5.0 points / Ang**2.
                        Smoothing algorithm: York/Karplus (Gamma=1.0000).
                        Polarization charges: spherical gaussians, with
                                              point-specific exponents (IZeta= 3).
                        Self-potential: point-specific (ISelfS= 7).
                        Self-field    : sphere-specific E.n sum rule (ISelfD= 2).
 Solvent              : Toluene, Eps=   2.374100 Eps(inf)=   2.238315
 ------------------------------------------------------------------------------
 Spheres list:
 ISph  on   Nord     Re0    Alpha      Xe            Ye            Ze
    1   O      1    1.7500  1.100      0.000000      0.000000      0.121072
    2   H      2    1.4430  1.100      0.000000      0.750198     -0.484286
    3   H      3    1.4430  1.100     -0.000000     -0.750198     -0.484286
 ------------------------------------------------------------------------------
 GePol: Number of generator spheres                  =       3
 GePol: Total number of spheres                      =       3
 GePol: Number of exposed spheres                    =       3 (100.00%)
 GePol: Number of points                             =     384
 GePol: Average weight of points                     =       0.14
 GePol: Minimum weight of points                     =   0.22D-03
 GePol: Maximum weight of points                     =    0.20212
 GePol: Number of points with low weight             =       5
 GePol: Fraction of low-weight points (<1% of avg)   =       1.30%
 GePol: Cavity surface area                          =     55.503 Ang**2
 GePol: Cavity volume                                =     37.398 Ang**3
 Leave Link  301 at Tue Jan  9 19:11:02 2018, MaxMem=  4194304000 cpu:         0.7
 (Enter /home/chemsoft/gaussian/g09e01/g09/l302.exe)
 NPDir=0 NMtPBC=     1 NCelOv=     1 NCel=       1 NClECP=     1 NCelD=      1
         NCelK=      1 NCelE2=     1 NClLst=     1 CellRange=     0.0.
 One-electron integrals computed using PRISM.
 One-electron integral symmetry used in STVInt
   4 Symmetry operations used in ECPInt.
 ECPInt:  NShTT=      78 NPrTT=     272 LenC2=      79 LenP2D=     271.
 LDataN:  DoStor=T MaxTD1= 4 Len=   56
 NBasis=    24 RedAO= T EigKep=  5.93D-02  NBF=    11     2     4     7
 NBsUse=    24 1.00D-06 EigRej= -1.00D+00 NBFU=    11     2     4     7
 Leave Link  302 at Tue Jan  9 19:11:02 2018, MaxMem=  4194304000 cpu:         2.4
 (Enter /home/chemsoft/gaussian/g09e01/g09/l303.exe)
 DipDrv:  MaxL=1.
 Leave Link  303 at Tue Jan  9 19:11:02 2018, MaxMem=  4194304000 cpu:         0.1
 (Enter /home/chemsoft/gaussian/g09e01/g09/l401.exe)
 Initial guess from the checkpoint file:  "h2o.mp4.def2svp.nbo6.freq.chk"
 B after Tr=    -0.000000   -0.000000    0.000000
         Rot=    1.000000    0.000000   -0.000000    0.000000 Ang=   0.00 deg.
 Guess basis will be translated and rotated to current coordinates.
 JPrj=2 DoOrth=T DoCkMO=T.
 Initial guess orbital symmetries:
       Occupied  (A1) (A1) (B2) (A1) (B1)
       Virtual   (A1) (B2) (B2) (A1) (A1) (B1) (B2) (A1) (A2) (A1)
                 (B1) (B2) (B2) (A1) (B1) (A2) (A1) (A1) (B2)
 The electronic state of the initial guess is 1-A1.
 Leave Link  401 at Tue Jan  9 19:11:02 2018, MaxMem=  4194304000 cpu:         1.9
 (Enter /home/chemsoft/gaussian/g09e01/g09/l502.exe)
 Closed shell SCF:
 Using DIIS extrapolation, IDIIS=  1040.
 Integral symmetry usage will be decided dynamically.
 Keep R1 ints in memory in symmetry-blocked form, NReq=3094170.
 IVT=       20889 IEndB=       20889 NGot=  4194304000 MDV=  4194269413
 LenX=  4194269413 LenY=  4194268347
 Requested convergence on RMS density matrix=1.00D-08 within 128 cycles.
 Requested convergence on MAX density matrix=1.00D-06.
 Requested convergence on             energy=1.00D-06.
 No special actions if energy rises.
 FoFCou: FMM=F IPFlag=           0 FMFlag=           0 FMFlg1=           0
         NFxFlg=           0 DoJE=F BraDBF=F KetDBF=F FulRan=T
         wScrn=  0.000000 ICntrl=     600 IOpCl=  0 I1Cent=           0 NGrid=           0
         NMat0=    1 NMatS0=    300 NMatT0=    0 NMatD0=    1 NMtDS0=    0 NMtDT0=    0
 Petite list used in FoFCou.

 Cycle   1  Pass 1  IDiag  1:
 Inv3:  Mode=1 IEnd=      442368.
 Iteration    1 A*A^-1 deviation from unit magnitude is 2.33D-15 for    379.
 Iteration    1 A*A^-1 deviation from orthogonality  is 1.80D-15 for    255     31.
 Iteration    1 A^-1*A deviation from unit magnitude is 2.22D-15 for    338.
 Iteration    1 A^-1*A deviation from orthogonality  is 7.79D-16 for    281      9.
 E= -75.9640464113070    
 DIIS: error= 3.36D-05 at cycle   1 NSaved=   1.
 NSaved= 1 IEnMin= 1 EnMin= -75.9640464113070     IErMin= 1 ErrMin= 3.36D-05
 ErrMax= 3.36D-05  0.00D+00 EMaxC= 1.00D-01 BMatC= 2.40D-08 BMatP= 2.40D-08
 IDIUse=1 WtCom= 1.00D+00 WtEn= 0.00D+00
 Coeff-Com:  0.100D+01
 Coeff:      0.100D+01
 Gap=     0.681 Goal=   None    Shift=    0.000
 RMSDP=8.51D-06 MaxDP=6.18D-05              OVMax= 5.15D-05

 Cycle   2  Pass 1  IDiag  1:
 E= -75.9640464363007     Delta-E=       -0.000000024994 Rises=F Damp=F
 DIIS: error= 5.74D-06 at cycle   2 NSaved=   2.
 NSaved= 2 IEnMin= 2 EnMin= -75.9640464363007     IErMin= 2 ErrMin= 5.74D-06
 ErrMax= 5.74D-06  0.00D+00 EMaxC= 1.00D-01 BMatC= 9.33D-10 BMatP= 2.40D-08
 IDIUse=1 WtCom= 1.00D+00 WtEn= 0.00D+00
 Coeff-Com: -0.203D+00 0.120D+01
 Coeff:     -0.203D+00 0.120D+01
 Gap=     0.681 Goal=   None    Shift=    0.000
 RMSDP=2.13D-06 MaxDP=1.54D-05 DE=-2.50D-08 OVMax= 1.65D-05

 Cycle   3  Pass 1  IDiag  1:
 E= -75.9640464376305     Delta-E=       -0.000000001330 Rises=F Damp=F
 DIIS: error= 1.21D-06 at cycle   3 NSaved=   3.
 NSaved= 3 IEnMin= 3 EnMin= -75.9640464376305     IErMin= 3 ErrMin= 1.21D-06
 ErrMax= 1.21D-06  0.00D+00 EMaxC= 1.00D-01 BMatC= 2.03D-11 BMatP= 9.33D-10
 IDIUse=1 WtCom= 1.00D+00 WtEn= 0.00D+00
 Coeff-Com:  0.111D-02-0.590D-01 0.106D+01
 Coeff:      0.111D-02-0.590D-01 0.106D+01
 Gap=     0.681 Goal=   None    Shift=    0.000
 RMSDP=2.64D-07 MaxDP=1.71D-06 DE=-1.33D-09 OVMax= 3.45D-06

 Cycle   4  Pass 1  IDiag  1:
 E= -75.9640464376633     Delta-E=       -0.000000000033 Rises=F Damp=F
 DIIS: error= 6.85D-07 at cycle   4 NSaved=   4.
 NSaved= 4 IEnMin= 4 EnMin= -75.9640464376633     IErMin= 4 ErrMin= 6.85D-07
 ErrMax= 6.85D-07  0.00D+00 EMaxC= 1.00D-01 BMatC= 5.52D-12 BMatP= 2.03D-11
 IDIUse=1 WtCom= 1.00D+00 WtEn= 0.00D+00
 Coeff-Com:  0.177D-01-0.120D+00 0.310D+00 0.792D+00
 Coeff:      0.177D-01-0.120D+00 0.310D+00 0.792D+00
 Gap=     0.681 Goal=   None    Shift=    0.000
 RMSDP=8.50D-08 MaxDP=9.13D-07 DE=-3.28D-11 OVMax= 8.92D-07

 Cycle   5  Pass 1  IDiag  1:
 E= -75.9640464376690     Delta-E=       -0.000000000006 Rises=F Damp=F
 DIIS: error= 1.36D-07 at cycle   5 NSaved=   5.
 NSaved= 5 IEnMin= 5 EnMin= -75.9640464376690     IErMin= 5 ErrMin= 1.36D-07
 ErrMax= 1.36D-07  0.00D+00 EMaxC= 1.00D-01 BMatC= 2.14D-13 BMatP= 5.52D-12
 IDIUse=1 WtCom= 1.00D+00 WtEn= 0.00D+00
 Coeff-Com: -0.496D-02 0.371D-01-0.155D+00-0.278D+00 0.140D+01
 Coeff:     -0.496D-02 0.371D-01-0.155D+00-0.278D+00 0.140D+01
 Gap=     0.681 Goal=   None    Shift=    0.000
 RMSDP=4.24D-08 MaxDP=2.99D-07 DE=-5.70D-12 OVMax= 6.65D-07

 Cycle   6  Pass 1  IDiag  1:
 E= -75.9640464376696     Delta-E=       -0.000000000001 Rises=F Damp=F
 DIIS: error= 1.82D-08 at cycle   6 NSaved=   6.
 NSaved= 6 IEnMin= 6 EnMin= -75.9640464376696     IErMin= 6 ErrMin= 1.82D-08
 ErrMax= 1.82D-08  0.00D+00 EMaxC= 1.00D-01 BMatC= 5.75D-15 BMatP= 2.14D-13
 IDIUse=1 WtCom= 1.00D+00 WtEn= 0.00D+00
 Coeff-Com:  0.485D-03-0.403D-02 0.248D-01 0.304D-01-0.319D+00 0.127D+01
 Coeff:      0.485D-03-0.403D-02 0.248D-01 0.304D-01-0.319D+00 0.127D+01
 Gap=     0.681 Goal=   None    Shift=    0.000
 RMSDP=6.82D-09 MaxDP=5.48D-08 DE=-5.83D-13 OVMax= 1.03D-07

 Error on total polarization charges =  0.00068
 SCF Done:  E(RHF) =  -75.9640464377     A.U. after    6 cycles
            NFock=  6  Conv=0.68D-08     -V/T= 2.0029
 KE= 7.574692167431D+01 PE=-1.986993310861D+02 EE= 3.785245503314D+01
 Leave Link  502 at Tue Jan  9 19:11:03 2018, MaxMem=  4194304000 cpu:         5.0
 (Enter /home/chemsoft/gaussian/g09e01/g09/l801.exe)
 Windowed orbitals will be sorted by symmetry type.
 ExpMin= 1.22D-01 ExpMax= 2.27D+03 ExpMxC= 3.41D+02 IAcc=3 IRadAn=         5 AccDes= 0.00D+00
 HarFok:  IExCor=  205 AccDes= 0.00D+00 IRadAn=         5 IDoV=-2 UseB2=F ITyADJ=14
 ICtDFT= 12500011 ScaDFX=  1.000000  1.000000  1.000000  1.000000
 Largest valence mixing into a core orbital is  6.68D-05
 Largest core mixing into a valence orbital is  1.72D-05
 Range of M.O.s used for correlation:     2    24
 NBasis=    24 NAE=     5 NBE=     5 NFC=     1 NFV=     0
 NROrb=     23 NOA=     4 NOB=     4 NVA=    19 NVB=    19
 Leave Link  801 at Tue Jan  9 19:11:03 2018, MaxMem=  4194304000 cpu:         0.5
 (Enter /home/chemsoft/gaussian/g09e01/g09/l804.exe)
 Closed-shell transformation, MDV=  4194304000 ITran=4 ISComp=2.
 Semi-Direct transformation.
 ModeAB=           4 MOrb=             4 LenV=    4194135113
 LASXX=         5298 LTotXX=        5298 LenRXX=       11480
 LTotAB=        6182 MaxLAS=       23184 LenRXY=           0
 NonZer=       16778 LenScr=      785920 LnRSAI=       23184
 LnScr1=      785920 LExtra=           0 Total=      1606504
 MaxDsk=          -1 SrtSym=           T ITran=            4
 DoSDTr:  NPSUse=  8
 JobTyp=0 Pass  1:  I=   1 to   4.
 (rs|ai) integrals will be sorted in core.
 Complete sort for first half transformation.
 First half transformation complete.
 Complete sort for second half transformation.
 Second half transformation complete.
 Spin components of T(2) and E(2):
     alpha-alpha T2 =       0.6278031772D-02 E2=     -0.2528476970D-01
     alpha-beta  T2 =       0.3774198868D-01 E2=     -0.1509642568D+00
     beta-beta   T2 =       0.6278031772D-02 E2=     -0.2528476970D-01
 ANorm=    0.1024840501D+01
 E2 =    -0.2015337962D+00 EUMP2 =    -0.76165580233858D+02
 Leave Link  804 at Tue Jan  9 19:11:03 2018, MaxMem=  4194304000 cpu:         0.5
 (Enter /home/chemsoft/gaussian/g09e01/g09/l913.exe)
 CIDS:  MDV=  4194304000.
 Frozen-core window:  NFC=   1 NFV=   0.
 IFCWin=0 IBDFC=1 NFBD=     0     0 NFCmp=     0     0 NFFFC=     0     0
 Using DD3R+UMP44R for 1st iteration, S=T.
 Using DD4RQ for 2nd and later iterations.
 Keep R2 and R3 ints in memory in symmetry-blocked form, NReq=867704.
 FoFCou: FMM=F IPFlag=           0 FMFlag=           0 FMFlg1=           0
         NFxFlg=           0 DoJE=F BraDBF=F KetDBF=F FulRan=T
         wScrn=  0.000000 ICntrl=     600 IOpCl=  0 I1Cent=           0 NGrid=           0
         NMat0=    1 NMatS0=    300 NMatT0=    0 NMatD0=    1 NMtDS0=    0 NMtDT0=    0
 Petite list used in FoFCou.
 MP4(SDTQ)
 =========
 DD1Dir will call FoFMem   1 times, MxPair=        20
 NAB=    10 NAA=     0 NBB=     0.
 MP4(D)= -0.34023431D-02
 MP4(S)= -0.69381481D-03
 MP4(R+Q)=  0.17356739D-02
 IPart=  4 IA=    2   10.53% done.
 IPart=  5 IA=    3   20.47% done.
 IPart=  7 IA=    5   38.60% done.
 IPart=  6 IA=    6   46.78% done.
 IPart=  8 IA=    7   54.39% done.
 IPart=  2 IA=    8   61.40% done.
 IPart=  8 IA=   10   73.68% done.
 IPart=  7 IA=   12   83.63% done.
 IPart=  5 IA=   14   91.23% done.
 Time for triples=        0.36 seconds.
 MP4(T)=   -0.29438856D-02
 E3=       -0.68387882D-02        EUMP3=      -0.76172419022D+02
 E4(DQ)=   -0.16666693D-02        UMP4(DQ)=   -0.76174085691D+02
 E4(SDQ)=  -0.23604841D-02        UMP4(SDQ)=  -0.76174779506D+02
 E4(SDTQ)= -0.53043696D-02        UMP4(SDTQ)= -0.76177723392D+02
 VARIATIONAL ENERGIES WITH THE FIRST-ORDER WAVEFUNCTION:
 E(VAR1)=  -0.76162440202D+02     E(CISD,4)=  -0.76166378423D+02
 Largest amplitude= 4.70D-02
 Discarding MO integrals.
 Leave Link  913 at Tue Jan  9 19:11:04 2018, MaxMem=  4194304000 cpu:         1.8
 (Enter /home/chemsoft/gaussian/g09e01/g09/l601.exe)
 Copying SCF densities to generalized density rwf, IOpCl= 0 IROHF=0.

 **********************************************************************

            Population analysis using the SCF density.

 **********************************************************************

 Orbital symmetries:
       Occupied  (A1) (A1) (B2) (A1) (B1)
       Virtual   (A1) (B2) (B2) (A1) (A1) (B1) (B2) (A1) (A2) (A1)
                 (B1) (B2) (B2) (A1) (B1) (A2) (A1) (A1) (B2)
 The electronic state is 1-A1.
 Alpha  occ. eigenvalues --  -20.54829  -1.31759  -0.69559  -0.57432  -0.50003
 Alpha virt. eigenvalues --    0.18106   0.26164   0.78318   0.87580   1.18014
 Alpha virt. eigenvalues --    1.19860   1.27000   1.34640   1.60649   1.63435
 Alpha virt. eigenvalues --    1.79553   2.07115   2.54419   2.59374   3.33225
 Alpha virt. eigenvalues --    3.36809   3.56984   3.87783   4.23891
     Molecular Orbital Coefficients:
                           1         2         3         4         5
                        (A1)--O   (A1)--O   (B2)--O   (A1)--O   (B1)--O
     Eigenvalues --   -20.54829  -1.31759  -0.69559  -0.57432  -0.50003
   1 1   O  1S          0.99035   0.27868   0.00000   0.09542   0.00000
   2        2S         -0.03320   0.55120   0.00000   0.19714   0.00000
   3        3S          0.01045   0.29341   0.00000   0.33101   0.00000
   4        4PX         0.00000   0.00000   0.00000   0.00000   0.63165
   5        4PY         0.00000   0.00000   0.49339   0.00000   0.00000
   6        4PZ         0.00273  -0.08469   0.00000   0.54484   0.00000
   7        5PX         0.00000   0.00000   0.00000   0.00000   0.49911
   8        5PY         0.00000   0.00000   0.23688   0.00000   0.00000
   9        5PZ        -0.00020   0.00670   0.00000   0.35945   0.00000
  10        6D 0       -0.00015   0.00186   0.00000  -0.01752   0.00000
  11        6D+1        0.00000   0.00000   0.00000   0.00000  -0.01789
  12        6D-1        0.00000   0.00000  -0.02590   0.00000   0.00000
  13        6D+2        0.00081  -0.00360   0.00000   0.00373   0.00000
  14        6D-2        0.00000   0.00000   0.00000   0.00000   0.00000
  15 2   H  1S          0.00168   0.19179   0.32127  -0.20630   0.00000
  16        2S         -0.00175   0.00569   0.08331  -0.04951   0.00000
  17        3PX         0.00000   0.00000   0.00000   0.00000   0.02806
  18        3PY        -0.00186  -0.03161  -0.02086   0.03065   0.00000
  19        3PZ         0.00152   0.01791   0.03111   0.00514   0.00000
  20 3   H  1S          0.00168   0.19179  -0.32127  -0.20630   0.00000
  21        2S         -0.00175   0.00569  -0.08331  -0.04951   0.00000
  22        3PX         0.00000   0.00000   0.00000   0.00000   0.02806
  23        3PY         0.00186   0.03161  -0.02086  -0.03065   0.00000
  24        3PZ         0.00152   0.01791  -0.03111   0.00514   0.00000
                           6         7         8         9        10
                        (A1)--V   (B2)--V   (B2)--V   (A1)--V   (A1)--V
     Eigenvalues --     0.18106   0.26164   0.78318   0.87580   1.18014
   1 1   O  1S          0.08803   0.00000   0.00000  -0.11621  -0.14632
   2        2S          0.09534   0.00000   0.00000  -0.42180  -0.65307
   3        3S          1.08392   0.00000   0.00000   0.44367   0.15637
   4        4PX         0.00000   0.00000   0.00000   0.00000   0.00000
   5        4PY         0.00000  -0.28634  -0.25861   0.00000   0.00000
   6        4PZ        -0.18675   0.00000   0.00000   0.34880  -0.77950
   7        5PX         0.00000   0.00000   0.00000   0.00000   0.00000
   8        5PY         0.00000  -0.65180  -0.51798   0.00000   0.00000
   9        5PZ        -0.37593   0.00000   0.00000   0.02764   1.15902
  10        6D 0        0.00842   0.00000   0.00000   0.00526  -0.00432
  11        6D+1        0.00000   0.00000   0.00000   0.00000   0.00000
  12        6D-1        0.00000   0.01734  -0.10699   0.00000   0.00000
  13        6D+2       -0.00915   0.00000   0.00000  -0.10325  -0.00766
  14        6D-2        0.00000   0.00000   0.00000   0.00000   0.00000
  15 2   H  1S         -0.06847   0.03162   0.97347   0.81822   0.37890
  16        2S         -0.89054   1.42813  -0.67967  -0.57848  -0.00623
  17        3PX         0.00000   0.00000   0.00000   0.00000   0.00000
  18        3PY         0.01525  -0.01391   0.05251   0.24329  -0.06307
  19        3PZ        -0.01166   0.01113  -0.11527  -0.06280   0.13059
  20 3   H  1S         -0.06847  -0.03162  -0.97347   0.81822   0.37890
  21        2S         -0.89054  -1.42813   0.67967  -0.57848  -0.00623
  22        3PX         0.00000   0.00000   0.00000   0.00000   0.00000
  23        3PY        -0.01525  -0.01391   0.05251  -0.24329   0.06307
  24        3PZ        -0.01166  -0.01113   0.11527  -0.06280   0.13059
                          11        12        13        14        15
                        (B1)--V   (B2)--V   (A1)--V   (A2)--V   (A1)--V
     Eigenvalues --     1.19860   1.27000   1.34640   1.60649   1.63435
   1 1   O  1S          0.00000   0.00000  -0.23562   0.00000  -0.08808
   2        2S          0.00000   0.00000  -1.49181   0.00000  -0.72596
   3        3S          0.00000   0.00000   2.73195   0.00000   1.74453
   4        4PX        -0.96823   0.00000   0.00000   0.00000   0.00000
   5        4PY         0.00000  -0.77836   0.00000   0.00000   0.00000
   6        4PZ         0.00000   0.00000   0.11678   0.00000   0.07267
   7        5PX         1.03195   0.00000   0.00000   0.00000   0.00000
   8        5PY         0.00000   1.71130   0.00000   0.00000   0.00000
   9        5PZ         0.00000   0.00000  -0.66751   0.00000  -1.19361
  10        6D 0        0.00000   0.00000   0.04373   0.00000  -0.18018
  11        6D+1        0.00412   0.00000   0.00000   0.00000   0.00000
  12        6D-1        0.00000  -0.04590   0.00000   0.00000   0.00000
  13        6D+2        0.00000   0.00000   0.04850   0.00000   0.02314
  14        6D-2        0.00000   0.00000   0.00000   0.16693   0.00000
  15 2   H  1S          0.00000  -0.32352  -0.55178   0.00000  -0.76630
  16        2S          0.00000  -0.80479  -0.48479   0.00000  -0.18438
  17        3PX         0.00130   0.00000   0.00000   0.67108   0.00000
  18        3PY         0.00000   0.25046  -0.02984   0.00000   0.45428
  19        3PZ         0.00000  -0.17878  -0.33931   0.00000   0.41726
  20 3   H  1S          0.00000   0.32352  -0.55178   0.00000  -0.76630
  21        2S          0.00000   0.80479  -0.48479   0.00000  -0.18438
  22        3PX         0.00130   0.00000   0.00000  -0.67108   0.00000
  23        3PY         0.00000   0.25046   0.02984   0.00000  -0.45428
  24        3PZ         0.00000   0.17878  -0.33931   0.00000   0.41726
                          16        17        18        19        20
                        (B1)--V   (B2)--V   (B2)--V   (A1)--V   (B1)--V
     Eigenvalues --     1.79553   2.07115   2.54419   2.59374   3.33225
   1 1   O  1S          0.00000   0.00000   0.00000   0.15551   0.00000
   2        2S          0.00000   0.00000   0.00000   0.77869   0.00000
   3        3S          0.00000   0.00000   0.00000   0.61797   0.00000
   4        4PX        -0.02443   0.00000   0.00000   0.00000   0.01123
   5        4PY         0.00000   0.01518   0.77451   0.00000   0.00000
   6        4PZ         0.00000   0.00000   0.00000  -0.62989   0.00000
   7        5PX        -0.55466   0.00000   0.00000   0.00000  -0.29563
   8        5PY         0.00000   0.76863   0.07371   0.00000   0.00000
   9        5PZ         0.00000   0.00000   0.00000  -0.17671   0.00000
  10        6D 0        0.00000   0.00000   0.00000  -0.08442   0.00000
  11        6D+1       -0.19993   0.00000   0.00000   0.00000   1.03258
  12        6D-1        0.00000   0.02676   0.16612   0.00000   0.00000
  13        6D+2        0.00000   0.00000   0.00000   0.28039   0.00000
  14        6D-2        0.00000   0.00000   0.00000   0.00000   0.00000
  15 2   H  1S          0.00000  -0.32560  -0.21017  -0.40464   0.00000
  16        2S          0.00000  -0.07638  -0.29276  -0.17836   0.00000
  17        3PX         0.73580   0.00000   0.00000   0.00000   0.40921
  18        3PY         0.00000  -0.46573   0.68102   0.69183   0.00000
  19        3PZ         0.00000  -0.67383  -0.51721  -0.51912   0.00000
  20 3   H  1S          0.00000   0.32560   0.21017  -0.40464   0.00000
  21        2S          0.00000   0.07638   0.29276  -0.17836   0.00000
  22        3PX         0.73580   0.00000   0.00000   0.00000   0.40921
  23        3PY         0.00000  -0.46573   0.68102  -0.69183   0.00000
  24        3PZ         0.00000   0.67383   0.51721  -0.51912   0.00000
                          21        22        23        24
                        (A2)--V   (A1)--V   (A1)--V   (B2)--V
     Eigenvalues --     3.36809   3.56984   3.87783   4.23891
   1 1   O  1S          0.00000  -0.00382   0.07759   0.00000
   2        2S          0.00000  -0.09571   0.15030   0.00000
   3        3S          0.00000   0.42121   1.90587   0.00000
   4        4PX         0.00000   0.00000   0.00000   0.00000
   5        4PY         0.00000   0.00000   0.00000  -0.48184
   6        4PZ         0.00000   0.00271  -0.39766   0.00000
   7        5PX         0.00000   0.00000   0.00000   0.00000
   8        5PY         0.00000   0.00000   0.00000  -1.07109
   9        5PZ         0.00000  -0.48576  -0.93796   0.00000
  10        6D 0        0.00000   1.06051   0.23089   0.00000
  11        6D+1        0.00000   0.00000   0.00000   0.00000
  12        6D-1        0.00000   0.00000   0.00000   1.33916
  13        6D+2        0.00000   0.25820  -1.12005   0.00000
  14        6D-2        1.05290   0.00000   0.00000   0.00000
  15 2   H  1S          0.00000  -0.24626  -1.16426   1.04519
  16        2S          0.00000  -0.04077  -0.22489   0.25274
  17        3PX        -0.37635   0.00000   0.00000   0.00000
  18        3PY         0.00000   0.33689   0.61685  -0.60585
  19        3PZ         0.00000   0.33559  -0.48193   0.52189
  20 3   H  1S          0.00000  -0.24626  -1.16426  -1.04519
  21        2S          0.00000  -0.04077  -0.22489  -0.25274
  22        3PX         0.37635   0.00000   0.00000   0.00000
  23        3PY         0.00000  -0.33689  -0.61685  -0.60585
  24        3PZ         0.00000   0.33559  -0.48193  -0.52189
     Density Matrix:
                           1         2         3         4         5
   1 1   O  1S          2.13513
   2        2S          0.27909   0.68757
   3        3S          0.24740   0.45328   0.39154
   4        4PX         0.00000   0.00000   0.00000   0.79797
   5        4PY         0.00000   0.00000   0.00000  -0.00000   0.48686
   6        4PZ         0.06219   0.12128   0.31106   0.00000   0.00000
   7        5PX         0.00000   0.00000   0.00000   0.63053  -0.00000
   8        5PY         0.00000   0.00000   0.00000  -0.00000   0.23374
   9        5PZ         0.07194   0.14913   0.24189   0.00000   0.00000
  10        6D 0       -0.00260  -0.00485  -0.01051  -0.00000   0.00000
  11        6D+1       -0.00000  -0.00000  -0.00000  -0.02260   0.00000
  12        6D-1       -0.00000  -0.00000  -0.00000  -0.00000  -0.02556
  13        6D+2        0.00030  -0.00255   0.00037   0.00000   0.00000
  14        6D-2       -0.00000   0.00000   0.00000  -0.00000   0.00000
  15 2   H  1S          0.07085   0.12998  -0.02399   0.00000   0.31702
  16        2S         -0.00974  -0.01313  -0.02948   0.00000   0.08221
  17        3PX         0.00000   0.00000   0.00000   0.03544  -0.00000
  18        3PY        -0.01544  -0.02264   0.00170  -0.00000  -0.02058
  19        3PZ         0.01398   0.02167   0.01395   0.00000   0.03069
  20 3   H  1S          0.07085   0.12998  -0.02399   0.00000  -0.31702
  21        2S         -0.00974  -0.01313  -0.02948   0.00000  -0.08221
  22        3PX         0.00000   0.00000   0.00000   0.03544  -0.00000
  23        3PY         0.01544   0.02264  -0.00170  -0.00000  -0.02058
  24        3PZ         0.01398   0.02167   0.01395   0.00000  -0.03069
                           6         7         8         9        10
   6        4PZ         0.60807
   7        5PX         0.00000   0.49822
   8        5PY         0.00000  -0.00000   0.11222
   9        5PZ         0.39055   0.00000   0.00000   0.25850
  10        6D 0       -0.01941  -0.00000   0.00000  -0.01257   0.00062
  11        6D+1        0.00000  -0.01785   0.00000   0.00000   0.00000
  12        6D-1        0.00000  -0.00000  -0.01227   0.00000  -0.00000
  13        6D+2        0.00468   0.00000   0.00000   0.00263  -0.00014
  14        6D-2       -0.00000  -0.00000   0.00000  -0.00000   0.00000
  15 2   H  1S         -0.25727   0.00000   0.15220  -0.14573   0.00794
  16        2S         -0.05493   0.00000   0.03947  -0.03552   0.00176
  17        3PX         0.00000   0.02801  -0.00000   0.00000  -0.00000
  18        3PY         0.03874  -0.00000  -0.00988   0.02161  -0.00119
  19        3PZ         0.00258   0.00000   0.01474   0.00394  -0.00011
  20 3   H  1S         -0.25727   0.00000  -0.15220  -0.14573   0.00794
  21        2S         -0.05493   0.00000  -0.03947  -0.03552   0.00176
  22        3PX         0.00000   0.02801  -0.00000   0.00000   0.00000
  23        3PY        -0.03874  -0.00000  -0.00988  -0.02161   0.00119
  24        3PZ         0.00258   0.00000  -0.01474   0.00394  -0.00011
                          11        12        13        14        15
  11        6D+1        0.00064
  12        6D-1        0.00000   0.00134
  13        6D+2        0.00000   0.00000   0.00005
  14        6D-2        0.00000   0.00000  -0.00000   0.00000
  15 2   H  1S         -0.00000  -0.01664  -0.00292  -0.00000   0.36512
  16        2S         -0.00000  -0.00432  -0.00041  -0.00000   0.07613
  17        3PX        -0.00100   0.00000   0.00000  -0.00000   0.00000
  18        3PY         0.00000   0.00108   0.00045  -0.00000  -0.03818
  19        3PZ         0.00000  -0.00161  -0.00009   0.00000   0.02474
  20 3   H  1S          0.00000   0.01664  -0.00292   0.00000  -0.04774
  21        2S          0.00000   0.00432  -0.00041   0.00000  -0.03093
  22        3PX        -0.00100   0.00000  -0.00000   0.00000   0.00000
  23        3PY         0.00000   0.00108  -0.00045   0.00000   0.01137
  24        3PZ         0.00000   0.00161  -0.00009   0.00000  -0.01523
                          16        17        18        19        20
  16        2S          0.01885
  17        3PX         0.00000   0.00157
  18        3PY        -0.00686  -0.00000   0.00475
  19        3PZ         0.00487   0.00000  -0.00212   0.00263
  20 3   H  1S         -0.03093   0.00000  -0.01137  -0.01523   0.36512
  21        2S         -0.00891   0.00000   0.00009  -0.00549   0.07613
  22        3PX         0.00000   0.00157  -0.00000   0.00000   0.00000
  23        3PY        -0.00009  -0.00000  -0.00301  -0.00047   0.03818
  24        3PZ        -0.00549   0.00000   0.00047  -0.00124   0.02474
                          21        22        23        24
  21        2S          0.01885
  22        3PX         0.00000   0.00157
  23        3PY         0.00686  -0.00000   0.00475
  24        3PZ         0.00487   0.00000   0.00212   0.00263
    Full Mulliken population analysis:
                           1         2         3         4         5
   1 1   O  1S          2.13513
   2        2S         -0.09601   0.68757
   3        3S         -0.03906   0.35761   0.39154
   4        4PX         0.00000   0.00000   0.00000   0.79797
   5        4PY         0.00000   0.00000   0.00000   0.00000   0.48686
   6        4PZ         0.00000   0.00000   0.00000   0.00000   0.00000
   7        5PX         0.00000   0.00000   0.00000   0.31661   0.00000
   8        5PY         0.00000   0.00000   0.00000   0.00000   0.11737
   9        5PZ         0.00000   0.00000   0.00000   0.00000   0.00000
  10        6D 0        0.00000  -0.00000  -0.00000   0.00000   0.00000
  11        6D+1        0.00000  -0.00000  -0.00000   0.00000   0.00000
  12        6D-1       -0.00000   0.00000   0.00000   0.00000   0.00000
  13        6D+2        0.00000   0.00000  -0.00000   0.00000   0.00000
  14        6D-2        0.00000   0.00000   0.00000   0.00000   0.00000
  15 2   H  1S         -0.00333   0.04225  -0.01217   0.00000   0.06874
  16        2S          0.00061  -0.00512  -0.02028   0.00000   0.00679
  17        3PX         0.00000   0.00000   0.00000   0.00637   0.00000
  18        3PY        -0.00107   0.00760  -0.00044   0.00000   0.00337
  19        3PZ        -0.00078   0.00587   0.00288   0.00000   0.00851
  20 3   H  1S         -0.00333   0.04225  -0.01217   0.00000   0.06874
  21        2S          0.00061  -0.00512  -0.02028   0.00000   0.00679
  22        3PX         0.00000   0.00000   0.00000   0.00637   0.00000
  23        3PY        -0.00107   0.00760  -0.00044   0.00000   0.00337
  24        3PZ        -0.00078   0.00587   0.00288   0.00000   0.00851
                           6         7         8         9        10
   6        4PZ         0.60807
   7        5PX         0.00000   0.49822
   8        5PY         0.00000   0.00000   0.11222
   9        5PZ         0.19611   0.00000   0.00000   0.25850
  10        6D 0        0.00000   0.00000   0.00000   0.00000   0.00062
  11        6D+1        0.00000   0.00000   0.00000   0.00000   0.00000
  12        6D-1        0.00000   0.00000   0.00000   0.00000   0.00000
  13        6D+2        0.00000   0.00000   0.00000   0.00000  -0.00000
  14        6D-2        0.00000   0.00000   0.00000   0.00000  -0.00000
  15 2   H  1S          0.04502   0.00000   0.07362   0.05688   0.00016
  16        2S          0.00366   0.00000   0.01204   0.00874   0.00000
  17        3PX         0.00000   0.01011   0.00000   0.00000   0.00000
  18        3PY         0.01074   0.00000  -0.00062   0.00520   0.00021
  19        3PZ        -0.00011   0.00000   0.00354   0.00066   0.00002
  20 3   H  1S          0.04502   0.00000   0.07362   0.05688   0.00016
  21        2S          0.00366   0.00000   0.01204   0.00874   0.00000
  22        3PX         0.00000   0.01011   0.00000   0.00000   0.00000
  23        3PY         0.01074   0.00000  -0.00062   0.00520   0.00021
  24        3PZ        -0.00011   0.00000   0.00354   0.00066   0.00002
                          11        12        13        14        15
  11        6D+1        0.00064
  12        6D-1        0.00000   0.00134
  13        6D+2        0.00000   0.00000   0.00005
  14        6D-2       -0.00000   0.00000  -0.00000   0.00000
  15 2   H  1S         -0.00000   0.00318   0.00035   0.00000   0.36512
  16        2S         -0.00000   0.00009   0.00001   0.00000   0.05214
  17        3PX         0.00019   0.00000  -0.00000  -0.00000   0.00000
  18        3PY         0.00000   0.00019  -0.00000  -0.00000   0.00000
  19        3PZ         0.00000   0.00010   0.00002   0.00000   0.00000
  20 3   H  1S          0.00000   0.00318   0.00035   0.00000  -0.00599
  21        2S          0.00000   0.00009   0.00001   0.00000  -0.00965
  22        3PX         0.00019   0.00000   0.00000  -0.00000   0.00000
  23        3PY         0.00000   0.00019  -0.00000   0.00000   0.00167
  24        3PZ         0.00000   0.00010   0.00002   0.00000  -0.00000
                          16        17        18        19        20
  16        2S          0.01885
  17        3PX         0.00000   0.00157
  18        3PY         0.00000   0.00000   0.00475
  19        3PZ         0.00000   0.00000   0.00000   0.00263
  20 3   H  1S         -0.00965   0.00000   0.00167  -0.00000   0.36512
  21        2S         -0.00546   0.00000  -0.00001  -0.00000   0.05214
  22        3PX         0.00000   0.00006   0.00000   0.00000   0.00000
  23        3PY        -0.00001   0.00000   0.00066  -0.00000   0.00000
  24        3PZ        -0.00000   0.00000   0.00000  -0.00005   0.00000
                          21        22        23        24
  21        2S          0.01885
  22        3PX         0.00000   0.00157
  23        3PY         0.00000   0.00000   0.00475
  24        3PZ         0.00000   0.00000   0.00000   0.00263
     Gross orbital populations:
                           1
   1 1   O  1S          1.99091
   2        2S          1.05036
   3        3S          0.65007
   4        4PX         1.12731
   5        4PY         0.77906
   6        4PZ         0.92278
   7        5PX         0.83505
   8        5PY         0.40676
   9        5PZ         0.59756
  10        6D 0        0.00143
  11        6D+1        0.00103
  12        6D-1        0.00847
  13        6D+2        0.00078
  14        6D-2       -0.00000
  15 2   H  1S          0.67798
  16        2S          0.06240
  17        3PX         0.01830
  18        3PY         0.03225
  19        3PZ         0.02328
  20 3   H  1S          0.67798
  21        2S          0.06240
  22        3PX         0.01830
  23        3PY         0.03225
  24        3PZ         0.02328
          Condensed to atoms (all electrons):
               1          2          3
     1  O    7.684015   0.343776   0.343776
     2  H    0.343776   0.497207  -0.026766
     3  H    0.343776  -0.026766   0.497207
 Mulliken charges:
               1
     1  O   -0.371566
     2  H    0.185783
     3  H    0.185783
 Sum of Mulliken charges =   0.00000
 Mulliken charges with hydrogens summed into heavy atoms:
               1
     1  O    0.000000
 Electronic spatial extent (au):  <R**2>=             18.8254
 Charge=              0.0000 electrons
 Dipole moment (field-independent basis, Debye):
    X=             -0.0000    Y=             -0.0000    Z=             -2.2698  Tot=              2.2698
 Quadrupole moment (field-independent basis, Debye-Ang):
   XX=             -7.0609   YY=             -4.1824   ZZ=             -5.8547
   XY=              0.0000   XZ=              0.0000   YZ=              0.0000
 Traceless Quadrupole moment (field-independent basis, Debye-Ang):
   XX=             -1.3616   YY=              1.5169   ZZ=             -0.1553
   XY=              0.0000   XZ=              0.0000   YZ=              0.0000
 Octapole moment (field-independent basis, Debye-Ang**2):
  XXX=              0.0000  YYY=             -0.0000  ZZZ=             -1.4276  XYY=             -0.0000
  XXY=              0.0000  XXZ=             -0.3635  XZZ=              0.0000  YZZ=             -0.0000
  YYZ=             -1.3692  XYZ=             -0.0000
 Hexadecapole moment (field-independent basis, Debye-Ang**3):
 XXXX=             -4.8756 YYYY=             -5.5331 ZZZZ=             -5.9686 XXXY=             -0.0000
 XXXZ=             -0.0000 YYYX=             -0.0000 YYYZ=              0.0000 ZZZX=             -0.0000
 ZZZY=             -0.0000 XXYY=             -2.0142 XXZZ=             -1.8718 YYZZ=             -1.5138
 XXYZ=             -0.0000 YYXZ=              0.0000 ZZXY=              0.0000
 N-N= 9.135907941003D+00 E-N=-1.986993310559D+02  KE= 7.574692167431D+01
 Symmetry A1   KE= 6.767289826582D+01
 Symmetry A2   KE= 0.000000000000D+00
 Symmetry B1   KE= 4.571165598200D+00
 Symmetry B2   KE= 3.502857810289D+00

 Atomic contributions to Alpha molecular orbitals:
 Alpha occ 1 OE=-20.548 is O1-s=1.00
 Alpha occ 2 OE=-1.318 is O1-s=0.74 H2-s=0.11 H3-s=0.11
 Alpha occ 3 OE=-0.696 is O1-p=0.59 H3-s=0.19 H2-s=0.19
 Alpha occ 4 OE=-0.574 is O1-p=0.75 O1-s=0.11
 Alpha occ 5 OE=-0.500 is O1-p=0.98
 Alpha vir 6 OE=0.181 is H3-s=0.57 H2-s=0.57 O1-s=-0.16
 Alpha vir 7 OE=0.262 is H2-s=0.49 H3-s=0.49
 Alpha vir 8 OE=0.783 is H2-s=0.36 H3-s=0.36 O1-p=0.16
 Alpha vir 9 OE=0.876 is H2-s=0.30 H3-s=0.30 O1-p=0.10
 Alpha vir 10 OE=1.180 is O1-p=0.86 O1-s=0.10
 Alpha vir 11 OE=1.199 is O1-p=1.00
 Alpha vir 12 OE=1.270 is O1-p=1.08
 Alpha vir 13 OE=1.346 is O1-s=0.89 H2-p=0.11 H3-p=0.11
 Alpha vir 14 OE=1.606 is H3-p=0.46 H2-p=0.46
 Alpha vir 15 OE=1.634 is H2-p=0.29 H3-p=0.29 O1-s=0.19 O1-p=0.13
 Alpha vir 16 OE=1.796 is H2-p=0.44 H3-p=0.44
 Alpha vir 17 OE=2.071 is H2-p=0.48 H3-p=0.48
 Alpha vir 18 OE=2.544 is H2-p=0.39 H3-p=0.39 O1-p=0.12
 Alpha vir 19 OE=2.594 is H2-p=0.35 H3-p=0.35 O1-d=0.17
 Alpha vir 20 OE=3.332 is O1-d=0.90
 Alpha vir 21 OE=3.368 is O1-d=0.92
 Alpha vir 22 OE=3.570 is O1-d=0.90
 Alpha vir 23 OE=3.878 is O1-d=0.78
 Alpha vir 24 OE=4.239 is O1-d=0.87
 
 Orbital energies and kinetic energies (alpha):
                                 1                 2
   1         (A1)--O         -20.548285         28.842072
   2         (A1)--O          -1.317590          2.809337
   3         (B2)--O          -0.695595          1.751429
   4         (A1)--O          -0.574319          2.185040
   5         (B1)--O          -0.500033          2.285583
   6         (A1)--V           0.181058          0.728483
   7         (B2)--V           0.261644          0.774416
   8         (B2)--V           0.783175          1.898621
   9         (A1)--V           0.875795          2.503778
  10         (A1)--V           1.180145          3.503481
  11         (B1)--V           1.198599          3.676638
  12         (B2)--V           1.270001          3.005801
  13         (A1)--V           1.346396          3.247683
  14         (A2)--V           1.606486          2.136093
  15         (A1)--V           1.634350          2.371757
  16         (B1)--V           1.795531          2.296580
  17         (B2)--V           2.071149          2.496621
  18         (B2)--V           2.544186          4.230357
  19         (A1)--V           2.593743          4.599985
  20         (B1)--V           3.332251          4.470305
  21         (A2)--V           3.368091          4.532528
  22         (A1)--V           3.569839          4.754182
  23         (A1)--V           3.877826          5.534925
  24         (B2)--V           4.238912          5.905824
 Total kinetic energy from orbitals= 7.574692167431D+01
 Leave Link  601 at Tue Jan  9 19:11:04 2018, MaxMem=  4194304000 cpu:         0.7
 (Enter /home/chemsoft/gaussian/g09e01/g09/l612.exe)
 Running external command "gaunbo6 R"
         input file       "/scr/martin/g09job990/Gau-3085.EIn"
         output file      "/scr/martin/g09job990/Gau-3085.EOu"
         message file     "/scr/martin/g09job990/Gau-3085.EMs"
         fchk file        "/scr/martin/g09job990/Gau-3085.EFC"
         mat. el file     "/scr/martin/g09job990/Gau-3085.EUF"

 Writing Wrt12E file "/scr/martin/g09job990/Gau-3085.EUF"
 Gaussian matrix elements                                         Version   1 NLab= 7 Len12L=8 Len4L=8
 Write GAUSSIAN SCALARS               from file   501 offset           0 to matrix element file.
 Write OVERLAP                        from file   514 offset           0 to matrix element file.
 Write CORE HAMILTONIAN ALPHA         from file   515 offset           0 to matrix element file.
 Write CORE HAMILTONIAN BETA          from file   515 offset         300 to matrix element file.
 Write KINETIC ENERGY                 from file   516 offset           0 to matrix element file.
 Write ORTHOGONAL BASIS               from file   685 offset           0 to matrix element file.
 Write DIPOLE INTEGRALS               from file   518 offset           0 to matrix element file.
 Array DIP VEL INTEGRALS               on  file    572 does not exist.
 Array R X DEL INTEGRALS               on  file    572 does not exist.
 Write ALPHA ORBITAL ENERGIES         from file     0 offset           0 to matrix element file.
 Write ALPHA MO COEFFICIENTS          from file 10524 offset           0 to matrix element file.
 Write ALPHA DENSITY MATRIX           from file     0 offset           0 to matrix element file.
 Write ALPHA SCF DENSITY MATRIX       from file 10528 offset           0 to matrix element file.
 Write ALPHA FOCK MATRIX              from file 10536 offset           0 to matrix element file.
 No 2e integrals to process.
 Perform NBO analysis...

 *********************************** NBO 6.0 ***********************************
             N A T U R A L   A T O M I C   O R B I T A L   A N D
          N A T U R A L   B O N D   O R B I T A L   A N A L Y S I S
 ***************************** development version *****************************
  (c) Copyright 1996-2016 Board of Regents of the University of Wisconsin System
      on behalf of the Theoretical Chemistry Institute.  All rights reserved.

          Cite this program as:

          NBO 6.0.  E. D. Glendening, J. K. Badenhoop, A. E. Reed,
          J. E. Carpenter, J. A. Bohmann, C. M. Morales, C. R. Landis,
          and F. Weinhold (Theoretical Chemistry Institute, University
          of Wisconsin, Madison, WI, 2013); http://nbo6.chem.wisc.edu/

 Filename set to /scr/martin/g09job990/Gau-3085

 Job title:  Water MP4/def2-SVP


 NATURAL POPULATIONS:  Natural atomic orbital occupancies

  NAO Atom No lang   Type(AO)    Occupancy
 ------------------------------------------
   1    O  1  s      Cor( 1s)     1.99998
   2    O  1  s      Val( 2s)     1.75617
   3    O  1  s      Ryd( 3s)     0.00182
   4    O  1  px     Val( 2p)     1.99533
   5    O  1  px     Ryd( 3p)     0.00102
   6    O  1  py     Val( 2p)     1.45086
   7    O  1  py     Ryd( 3p)     0.00228
   8    O  1  pz     Val( 2p)     1.71454
   9    O  1  pz     Ryd( 3p)     0.00031
  10    O  1  dxy    Ryd( 3d)     0.00000
  11    O  1  dxz    Ryd( 3d)     0.00131
  12    O  1  dyz    Ryd( 3d)     0.00374
  13    O  1  dx2y2  Ryd( 3d)     0.00094
  14    O  1  dz2    Ryd( 3d)     0.00163

  15    H  2  s      Val( 1s)     0.52915
  16    H  2  s      Ryd( 2s)     0.00134
  17    H  2  px     Ryd( 2p)     0.00117
  18    H  2  py     Ryd( 2p)     0.00203
  19    H  2  pz     Ryd( 2p)     0.00133

  20    H  3  s      Val( 1s)     0.52915
  21    H  3  s      Ryd( 2s)     0.00134
  22    H  3  px     Ryd( 2p)     0.00117
  23    H  3  py     Ryd( 2p)     0.00203
  24    H  3  pz     Ryd( 2p)     0.00133


 Summary of Natural Population Analysis:

                                     Natural Population
             Natural    ---------------------------------------------
  Atom No    Charge        Core      Valence    Rydberg      Total
 --------------------------------------------------------------------
    O  1   -0.92995      1.99998     6.91691    0.01306     8.92995
    H  2    0.46497      0.00000     0.52915    0.00588     0.53503
    H  3    0.46497      0.00000     0.52915    0.00588     0.53503
 ====================================================================
 * Total *  0.00000      1.99998     7.97520    0.02481    10.00000

                                 Natural Population
 ---------------------------------------------------------
   Core                       1.99998 ( 99.9992% of    2)
   Valence                    7.97520 ( 99.6900% of    8)
   Natural Minimal Basis      9.97519 ( 99.7519% of   10)
   Natural Rydberg Basis      0.02481 (  0.2481% of   10)
 ---------------------------------------------------------

    Atom No         Natural Electron Configuration
 ----------------------------------------------------------------------------
      O  1      [core]2s( 1.76)2p( 5.16)3d( 0.01)
      H  2            1s( 0.53)
      H  3            1s( 0.53)


 NATURAL BOND ORBITAL ANALYSIS:

                            Occupancies       Lewis Structure    Low   High
         Max    Occ     -------------------  -----------------   occ   occ
  Cycle  Ctr   Thresh    Lewis   non-Lewis     CR  BD  nC  LP    (L)   (NL)
 ============================================================================
    1     2     1.90     9.99311   0.00689      1   2   0   2     0      0
    2     2     1.47     9.24799   0.75201      1   1   0   3     0      2
    3     2     1.45     8.92994   1.07006      1   0   0   4     0      2
    4     2     1.90     9.99311   0.00689      1   2   0   2     0      0
 ----------------------------------------------------------------------------

 Structure accepted: No low occupancy Lewis orbitals

 -------------------------------------------------------
   Core                      1.99998 ( 99.999% of   2)
   Valence Lewis             7.99312 ( 99.914% of   8)
  ==================      =============================
   Total Lewis               9.99311 ( 99.931% of  10)
  -----------------------------------------------------
   Valence non-Lewis         0.00014 (  0.001% of  10)
   Rydberg non-Lewis         0.00675 (  0.068% of  10)
  ==================      =============================
   Total non-Lewis           0.00689 (  0.069% of  10)
 -------------------------------------------------------


     (Occupancy)   Bond orbital / Coefficients / Hybrids
 ------------------ Lewis ------------------------------------------------------
   1. (1.99998) CR ( 1) O  1            s(100.00%)
                                         1.0000  0.0000  0.0000  0.0000  0.0000
                                         0.0000  0.0000  0.0000  0.0000  0.0000
                                         0.0000  0.0000  0.0000  0.0000
   2. (1.99766) LP ( 1) O  1            s(  0.00%)p 1.00( 99.93%)d 0.00(  0.07%)
                                         0.0000  0.0000  0.0000  0.9994 -0.0227
                                         0.0000  0.0000  0.0000  0.0000  0.0000
                                        -0.0256  0.0000  0.0000  0.0000
   3. (1.99761) LP ( 2) O  1            s( 53.73%)p 0.86( 46.23%)d 0.00(  0.04%)
                                         0.0000  0.7328 -0.0188  0.0000  0.0000
                                         0.0000  0.0000  0.6798 -0.0121  0.0000
                                         0.0000  0.0000 -0.0024 -0.0193
   4. (1.99893) BD ( 1) O  1- H  2
               ( 73.41%)   0.8568* O  1 s( 23.16%)p 3.31( 76.65%)d 0.01(  0.19%)
                                         0.0000  0.4809  0.0194  0.0000  0.0000
                                         0.7056  0.0280 -0.5174 -0.0027  0.0000
                                         0.0000 -0.0358 -0.0177  0.0173
               ( 26.59%)   0.5157* H  2 s( 99.53%)p 0.00(  0.47%)
                                         0.9976 -0.0007  0.0000 -0.0580  0.0367
   5. (1.99893) BD ( 1) O  1- H  3
               ( 73.41%)   0.8568* O  1 s( 23.16%)p 3.31( 76.65%)d 0.01(  0.19%)
                                         0.0000  0.4809  0.0194  0.0000  0.0000
                                        -0.7056 -0.0280 -0.5174 -0.0027  0.0000
                                         0.0000  0.0358 -0.0177  0.0173
               ( 26.59%)   0.5157* H  3 s( 99.53%)p 0.00(  0.47%)
                                         0.9976 -0.0007  0.0000  0.0580  0.0367
 ---------------- non-Lewis ----------------------------------------------------
   6. (0.00007) BD*( 1) O  1- H  2
               ( 26.59%)   0.5157* O  1 s( 23.16%)p 3.31( 76.65%)d 0.01(  0.19%)
               ( 73.41%)  -0.8568* H  2 s( 99.53%)p 0.00(  0.47%)
   7. (0.00007) BD*( 1) O  1- H  3
               ( 26.59%)   0.5157* O  1 s( 23.16%)p 3.31( 76.65%)d 0.01(  0.19%)
               ( 73.41%)  -0.8568* H  3 s( 99.53%)p 0.00(  0.47%)
   8. (0.00000) RY ( 1) O  1            s(  0.02%)p99.99( 97.88%)d99.99(  2.10%)
   9. (0.00000) RY ( 2) O  1            s( 99.89%)p 0.00(  0.11%)d 0.00(  0.00%)
  10. (0.00000) RY ( 3) O  1            s(  0.00%)p 1.00(100.00%)d 0.00(  0.00%)
  11. (0.00000) RY ( 4) O  1            s(  0.00%)p 1.00(100.00%)d 0.00(  0.00%)
  12. (0.00000) RY ( 5) O  1            s(  0.00%)p 0.00(  0.00%)d 1.00(100.00%)
  13. (0.00000) RY ( 6) O  1            s(  0.00%)p 1.00(  0.07%)d99.99( 99.93%)
  14. (0.00000) RY ( 7) O  1            s(  0.00%)p 1.00(  0.26%)d99.99( 99.74%)
  15. (0.00000) RY ( 8) O  1            s(  0.03%)p73.65(  2.12%)d99.99( 97.85%)
  16. (0.00000) RY ( 9) O  1            s(  0.00%)p 1.00(  0.10%)d99.99( 99.90%)
  17. (0.00137) RY ( 1) H  2            s( 95.99%)p 0.04(  4.01%)
                                         0.0020  0.9797  0.0000 -0.0906 -0.1786
  18. (0.00117) RY ( 2) H  2            s(  0.00%)p 1.00(100.00%)
                                         0.0000  0.0000  1.0000  0.0000  0.0000
  19. (0.00084) RY ( 3) H  2            s(  3.96%)p24.28( 96.04%)
                                         0.0018  0.1989  0.0000  0.5447  0.8147
  20. (0.00000) RY ( 4) H  2            s(  0.53%)p99.99( 99.47%)
  21. (0.00137) RY ( 1) H  3            s( 95.99%)p 0.04(  4.01%)
                                         0.0020  0.9797  0.0000  0.0906 -0.1786
  22. (0.00117) RY ( 2) H  3            s(  0.00%)p 1.00(100.00%)
                                         0.0000  0.0000  1.0000  0.0000  0.0000
  23. (0.00084) RY ( 3) H  3            s(  3.96%)p24.28( 96.04%)
                                         0.0018  0.1989  0.0000 -0.5447  0.8147
  24. (0.00000) RY ( 4) H  3            s(  0.53%)p99.99( 99.47%)


 NHO DIRECTIONALITY AND BOND BENDING (deviation from line of nuclear centers at
                                      the position of maximum hybrid amplitude)

         [Thresholds for printing:  angular deviation  >  1.0 degree]
                                    p- or d-character  > 25.0%
                                    orbital occupancy  >  0.10e

                        Line of Centers        Hybrid 1             Hybrid 2
                        ---------------  -------------------  ------------------
           NBO            Theta   Phi    Theta   Phi    Dev   Theta   Phi    Dev
 ===============================================================================
   2. LP ( 1) O  1          --     --     90.7  180.0   --      --     --    --
   3. LP ( 2) O  1          --     --      0.0    0.0   --      --     --    --
   4. BD ( 1) O  1- H  2  128.9   90.0   127.3   90.0   1.6     --     --    --
   5. BD ( 1) O  1- H  3  128.9  270.0   127.3  270.0   1.6     --     --    --


 NATURAL BOND ORBITALS (Summary):

           NBO                 Occupancy
 ========================================
 Molecular unit  1  (H2O)
 ------ Lewis ---------------------------
    1. CR ( 1) O  1             1.99998
    2. LP ( 1) O  1             1.99766
    3. LP ( 2) O  1             1.99761
    4. BD ( 1) O  1- H  2       1.99893
    5. BD ( 1) O  1- H  3       1.99893
 ------ non-Lewis -----------------------
    6. BD*( 1) O  1- H  2       0.00007
    7. BD*( 1) O  1- H  3       0.00007
    8. RY ( 1) O  1             0.00000
    9. RY ( 2) O  1             0.00000
   10. RY ( 3) O  1             0.00000
   11. RY ( 4) O  1             0.00000
   12. RY ( 5) O  1             0.00000
   13. RY ( 6) O  1             0.00000
   14. RY ( 7) O  1             0.00000
   15. RY ( 8) O  1             0.00000
   16. RY ( 9) O  1             0.00000
   17. RY ( 1) H  2             0.00137
   18. RY ( 2) H  2             0.00117
   19. RY ( 3) H  2             0.00084
   20. RY ( 4) H  2             0.00000
   21. RY ( 1) H  3             0.00137
   22. RY ( 2) H  3             0.00117
   23. RY ( 3) H  3             0.00084
   24. RY ( 4) H  3             0.00000
          -------------------------------
                 Total Lewis    9.99311  ( 99.9311%)
           Valence non-Lewis    0.00014  (  0.0014%)
           Rydberg non-Lewis    0.00675  (  0.0675%)
          -------------------------------
               Total unit  1   10.00000  (100.0000%)
              Charge unit  1    0.00000

 $CHOOSE
   LONE 1 2 END
   BOND S 1 2 S 1 3 END
 $END

 NBO analysis completed in 0.04 CPU seconds (0 wall seconds)
 Maximum scratch memory used by NBO was 146826 words
 Maximum scratch memory used by G09NBO was 11155 words

 Read Unf file /scr/martin/g09job990/Gau-3085.EUF:
 Label Gaussian matrix elements                                         IVers= 1 NLab= 2 Version=ES64L-G09RevE.01
 Title Water MP4/def2-SVP                                              
 NAtoms=     3 NBasis=    24 NBsUse=    24 ICharg=     0 Multip=     1 NE=    10 Len12L=8 Len4L=8
 Label GAUSSIAN SCALARS                                                 NI= 1 NR= 1 NTot=       1 LenBuf=    2000 N=    1000       1       1       1       1
 Label NPA CHARGES                                                      NI= 0 NR= 1 NTot=       3 LenBuf=    4000 N=       3       0       0       0       0
 Recovered energy= -76.1777233917     dipole=      0.000000000000      0.000000000000      0.000000000000
 Leave Link  612 at Tue Jan  9 19:11:04 2018, MaxMem=  4194304000 cpu:         2.9
 (Enter /home/chemsoft/gaussian/g09e01/g09/l110.exe)
 EnFreq: symmetry will be used.
 Leave EnFreq:  IXYZ= 0 JXYZ= 1 IStep= 1.
 Leave Link  110 at Tue Jan  9 19:11:04 2018, MaxMem=  4194304000 cpu:         0.2
 (Enter /home/chemsoft/gaussian/g09e01/g09/l301.exe)
 Standard basis: def2SVP (5D, 7F)
 Ernie: Thresh=  0.10000D-02 Tol=  0.10000D-05 Strict=F.
    24 basis functions,    39 primitive gaussians,    25 cartesian basis functions
     5 alpha electrons        5 beta electrons
       nuclear repulsion energy         9.1354353848 Hartrees.
 IExCor=    0 DFT=F Ex=HF Corr=None ExCW=0 ScaHFX=  1.000000
 ScaDFX=  1.000000  1.000000  1.000000  1.000000 ScalE2=  1.000000  1.000000
 IRadAn=      0 IRanWt=     -1 IRanGd=            0 ICorTp=0 IEmpDi=  4
 NAtoms=    3 NActive=    3 NUniq=    3 SFac= 1.00D+00 NAtFMM=   60 NAOKFM=F Big=F
 Integral buffers will be    131072 words long.
 Raffenetti 1 integral format.
 Two-electron integral symmetry is turned off.
 ------------------------------------------------------------------------------
 Polarizable Continuum Model (PCM)
 =================================
 Model                : PCM (using non-symmetric T matrix).
 Atomic radii         : UFF (Universal Force Field).
 Polarization charges : Total charges.
 Charge compensation  : None.
 Solution method      : On-the-fly selection.
 Cavity type          : Scaled VdW (van der Waals Surface) (Alpha=1.100).
 Cavity algorithm     : GePol (No added spheres)
                        Default sphere list used, NSphG=    3.
                        Lebedev-Laikov grids with approx.  5.0 points / Ang**2.
                        Smoothing algorithm: York/Karplus (Gamma=1.0000).
                        Polarization charges: spherical gaussians, with
                                              point-specific exponents (IZeta= 3).
                        Self-potential: point-specific (ISelfS= 7).
                        Self-field    : sphere-specific E.n sum rule (ISelfD= 2).
 Solvent              : Toluene, Eps=   2.374100 Eps(inf)=   2.238315
 ------------------------------------------------------------------------------
 Spheres list:
 ISph  on   Nord     Re0    Alpha      Xe            Ye            Ze
    1   O      1    1.7500  1.100      0.010000      0.000000      0.121072
    2   H      2    1.4430  1.100      0.000000      0.750198     -0.484286
    3   H      3    1.4430  1.100     -0.000000     -0.750198     -0.484286
 ------------------------------------------------------------------------------
 GePol: Number of generator spheres                  =       3
 GePol: Total number of spheres                      =       3
 GePol: Number of exposed spheres                    =       3 (100.00%)
 GePol: Number of points                             =     386
 GePol: Average weight of points                     =       0.14
 GePol: Minimum weight of points                     =   0.13D-08
 GePol: Maximum weight of points                     =    0.20212
 GePol: Number of points with low weight             =       9
 GePol: Fraction of low-weight points (<1% of avg)   =       2.33%
 GePol: Cavity surface area                          =     55.503 Ang**2
 GePol: Cavity volume                                =     37.398 Ang**3
 Leave Link  301 at Tue Jan  9 19:11:04 2018, MaxMem=  4194304000 cpu:         0.5
 (Enter /home/chemsoft/gaussian/g09e01/g09/l302.exe)
 NPDir=0 NMtPBC=     1 NCelOv=     1 NCel=       1 NClECP=     1 NCelD=      1
         NCelK=      1 NCelE2=     1 NClLst=     1 CellRange=     0.0.
 One-electron integrals computed using PRISM.
   1 Symmetry operations used in ECPInt.
 ECPInt:  NShTT=      78 NPrTT=     272 LenC2=      79 LenP2D=     271.
 LDataN:  DoStor=T MaxTD1= 4 Len=   56
 NBasis=    24 RedAO= T EigKep=  3.76D-02  NBF=    24
 NBsUse=    24 1.00D-06 EigRej= -1.00D+00 NBFU=    24
 Leave Link  302 at Tue Jan  9 19:11:05 2018, MaxMem=  4194304000 cpu:         1.4
 (Enter /home/chemsoft/gaussian/g09e01/g09/l303.exe)
 DipDrv:  MaxL=1.
 Leave Link  303 at Tue Jan  9 19:11:05 2018, MaxMem=  4194304000 cpu:         0.5
 (Enter /home/chemsoft/gaussian/g09e01/g09/l401.exe)
 Initial guess from the checkpoint file:  "h2o.mp4.def2svp.nbo6.freq.chk"
 B after Tr=     0.015118   -0.000000   -0.000000
         Rot=    0.999966   -0.000000   -0.008259   -0.000000 Ang=  -0.95 deg.
 Guess basis will be translated and rotated to current coordinates.
 JPrj=2 DoOrth=T DoCkMO=T.
 Leave Link  401 at Tue Jan  9 19:11:05 2018, MaxMem=  4194304000 cpu:         0.5
 (Enter /home/chemsoft/gaussian/g09e01/g09/l502.exe)
 Closed shell SCF:
 Using DIIS extrapolation, IDIIS=  1040.
 Two-electron integral symmetry not used.
 Keep R1 ints in memory in canonical form, NReq=3094651.
 IVT=       20781 IEndB=       20781 NGot=  4194304000 MDV=  4194238070
 LenX=  4194238070 LenY=  4194237004
 Requested convergence on RMS density matrix=1.00D-08 within 128 cycles.
 Requested convergence on MAX density matrix=1.00D-06.
 Requested convergence on             energy=1.00D-06.
 No special actions if energy rises.
 FoFCou: FMM=F IPFlag=           0 FMFlag=           0 FMFlg1=           0
         NFxFlg=           0 DoJE=F BraDBF=F KetDBF=F FulRan=T
         wScrn=  0.000000 ICntrl=     600 IOpCl=  0 I1Cent=           0 NGrid=           0
         NMat0=    1 NMatS0=    300 NMatT0=    0 NMatD0=    1 NMtDS0=    0 NMtDT0=    0
 Symmetry not used in FoFCou.

 Cycle   1  Pass 1  IDiag  1:
 Inv3:  Mode=1 IEnd=      446988.
 Iteration    1 A*A^-1 deviation from unit magnitude is 2.55D-15 for    380.
 Iteration    1 A*A^-1 deviation from orthogonality  is 1.62D-15 for    253     29.
 Iteration    1 A^-1*A deviation from unit magnitude is 2.66D-15 for    170.
 Iteration    1 A^-1*A deviation from orthogonality  is 6.90D-16 for    192     93.
 E= -75.9640419095995    
 DIIS: error= 9.23D-06 at cycle   1 NSaved=   1.
 NSaved= 1 IEnMin= 1 EnMin= -75.9640419095995     IErMin= 1 ErrMin= 9.23D-06
 ErrMax= 9.23D-06  0.00D+00 EMaxC= 1.00D-01 BMatC= 2.36D-09 BMatP= 2.36D-09
 IDIUse=1 WtCom= 1.00D+00 WtEn= 0.00D+00
 Coeff-Com:  0.100D+01
 Coeff:      0.100D+01
 Gap=     1.086 Goal=   None    Shift=    0.000
 RMSDP=2.44D-06 MaxDP=1.59D-05              OVMax= 1.89D-05

 Cycle   2  Pass 1  IDiag  1:
 E= -75.9640419121377     Delta-E=       -0.000000002538 Rises=F Damp=F
 DIIS: error= 2.45D-06 at cycle   2 NSaved=   2.
 NSaved= 2 IEnMin= 2 EnMin= -75.9640419121377     IErMin= 2 ErrMin= 2.45D-06
 ErrMax= 2.45D-06  0.00D+00 EMaxC= 1.00D-01 BMatC= 1.81D-10 BMatP= 2.36D-09
 IDIUse=1 WtCom= 1.00D+00 WtEn= 0.00D+00
 Coeff-Com: -0.497D-01 0.105D+01
 Coeff:     -0.497D-01 0.105D+01
 Gap=     0.681 Goal=   None    Shift=    0.000
 RMSDP=6.43D-07 MaxDP=5.40D-06 DE=-2.54D-09 OVMax= 5.04D-06

 Cycle   3  Pass 1  IDiag  1:
 E= -75.9640419123314     Delta-E=       -0.000000000194 Rises=F Damp=F
 DIIS: error= 1.14D-06 at cycle   3 NSaved=   3.
 NSaved= 3 IEnMin= 3 EnMin= -75.9640419123314     IErMin= 3 ErrMin= 1.14D-06
 ErrMax= 1.14D-06  0.00D+00 EMaxC= 1.00D-01 BMatC= 3.03D-11 BMatP= 1.81D-10
 IDIUse=1 WtCom= 1.00D+00 WtEn= 0.00D+00
 Coeff-Com: -0.714D-01 0.243D+00 0.828D+00
 Coeff:     -0.714D-01 0.243D+00 0.828D+00
 Gap=     0.681 Goal=   None    Shift=    0.000
 RMSDP=2.22D-07 MaxDP=1.79D-06 DE=-1.94D-10 OVMax= 2.74D-06

 Cycle   4  Pass 1  IDiag  1:
 E= -75.9640419123649     Delta-E=       -0.000000000033 Rises=F Damp=F
 DIIS: error= 2.75D-07 at cycle   4 NSaved=   4.
 NSaved= 4 IEnMin= 4 EnMin= -75.9640419123649     IErMin= 4 ErrMin= 2.75D-07
 ErrMax= 2.75D-07  0.00D+00 EMaxC= 1.00D-01 BMatC= 1.86D-12 BMatP= 3.03D-11
 IDIUse=1 WtCom= 1.00D+00 WtEn= 0.00D+00
 Coeff-Com:  0.426D-02-0.836D-01 0.294D-01 0.105D+01
 Coeff:      0.426D-02-0.836D-01 0.294D-01 0.105D+01
 Gap=     0.681 Goal=   None    Shift=    0.000
 RMSDP=7.76D-08 MaxDP=6.85D-07 DE=-3.35D-11 OVMax= 1.05D-06

 Cycle   5  Pass 1  IDiag  1:
[...]
 ====================================================================
 * Total *  0.00000      1.99998     7.97550    0.02452    10.00000

                                 Natural Population
 ---------------------------------------------------------
   Core                       1.99998 ( 99.9992% of    2)
   Valence                    7.97550 ( 99.6937% of    8)
   Natural Minimal Basis      9.97548 ( 99.7548% of   10)
   Natural Rydberg Basis      0.02452 (  0.2452% of   10)
 ---------------------------------------------------------

    Atom No         Natural Electron Configuration
 ----------------------------------------------------------------------------
      O  1      [core]2s( 1.76)2p( 5.16)3d( 0.01)
      H  2            1s( 0.53)
      H  3            1s( 0.53)


 NATURAL BOND ORBITAL ANALYSIS:

                            Occupancies       Lewis Structure    Low   High
         Max    Occ     -------------------  -----------------   occ   occ
  Cycle  Ctr   Thresh    Lewis   non-Lewis     CR  BD  nC  LP    (L)   (NL)
 ============================================================================
    1     2     1.90     9.99309   0.00691      1   2   0   2     0      0
    2     2     1.47     9.24847   0.75153      1   1   0   3     0      2
    3     2     1.45     8.93142   1.06858      1   0   0   4     0      2
    4     2     1.90     9.99309   0.00691      1   2   0   2     0      0
 ----------------------------------------------------------------------------

 Structure accepted: No low occupancy Lewis orbitals

 -------------------------------------------------------
   Core                      1.99998 ( 99.999% of   2)
   Valence Lewis             7.99310 ( 99.914% of   8)
  ==================      =============================
   Total Lewis               9.99309 ( 99.931% of  10)
  -----------------------------------------------------
   Valence non-Lewis         0.00012 (  0.001% of  10)
   Rydberg non-Lewis         0.00680 (  0.068% of  10)
  ==================      =============================
   Total non-Lewis           0.00691 (  0.069% of  10)
 -------------------------------------------------------


     (Occupancy)   Bond orbital / Coefficients / Hybrids
 ------------------ Lewis ------------------------------------------------------
   1. (1.99998) CR ( 1) O  1            s(100.00%)
                                         1.0000  0.0000  0.0000  0.0000  0.0000
                                         0.0000  0.0000  0.0000  0.0000  0.0000
                                         0.0000  0.0000  0.0000  0.0000
   2. (1.99768) LP ( 1) O  1            s(  0.00%)p 1.00( 99.93%)d 0.00(  0.07%)
                                         0.0000  0.0000  0.0000  0.9994 -0.0217
                                         0.0000  0.0000  0.0000  0.0000  0.0000
                                        -0.0255  0.0000  0.0000  0.0000
   3. (1.99759) LP ( 2) O  1            s( 54.74%)p 0.83( 45.22%)d 0.00(  0.04%)
                                         0.0000  0.7397 -0.0184  0.0000  0.0000
                                         0.0000  0.0000  0.6724 -0.0113  0.0000
                                         0.0000  0.0000 -0.0025 -0.0190
   4. (1.99891) BD ( 1) O  1- H  2
               ( 73.44%)   0.8570* O  1 s( 22.66%)p 3.40( 77.15%)d 0.01(  0.19%)
                                         0.0000  0.4756  0.0194  0.0000  0.0000
                                         0.7057  0.0269 -0.5223 -0.0021  0.0000
                                         0.0000 -0.0358 -0.0175  0.0178
               ( 26.56%)   0.5153* H  2 s( 99.53%)p 0.00(  0.47%)
                                         0.9976 -0.0006  0.0000 -0.0577  0.0371
   5. (1.99891) BD ( 1) O  1- H  3
               ( 73.44%)   0.8570* O  1 s( 22.66%)p 3.40( 77.15%)d 0.01(  0.19%)
                                         0.0000  0.4756  0.0194  0.0000  0.0000
                                        -0.7057 -0.0269 -0.5223 -0.0021  0.0000
                                         0.0000  0.0358 -0.0175  0.0178
               ( 26.56%)   0.5153* H  3 s( 99.53%)p 0.00(  0.47%)
                                         0.9976 -0.0006  0.0000  0.0577  0.0371
 ---------------- non-Lewis ----------------------------------------------------
   6. (0.00006) BD*( 1) O  1- H  2
               ( 26.56%)   0.5153* O  1 s( 22.66%)p 3.40( 77.15%)d 0.01(  0.19%)
               ( 73.44%)  -0.8570* H  2 s( 99.53%)p 0.00(  0.47%)
   7. (0.00006) BD*( 1) O  1- H  3
               ( 26.56%)   0.5153* O  1 s( 22.66%)p 3.40( 77.15%)d 0.01(  0.19%)
               ( 73.44%)  -0.8570* H  3 s( 99.53%)p 0.00(  0.47%)
   8. (0.00000) RY ( 1) O  1            s(  0.02%)p99.99( 98.50%)d92.95(  1.48%)
   9. (0.00000) RY ( 2) O  1            s( 99.89%)p 0.00(  0.11%)d 0.00(  0.00%)
  10. (0.00000) RY ( 3) O  1            s(  0.00%)p 1.00(100.00%)d 0.00(  0.00%)
  11. (0.00000) RY ( 4) O  1            s(  0.00%)p 1.00(100.00%)d 0.00(  0.00%)
  12. (0.00000) RY ( 5) O  1            s(  0.00%)p 0.00(  0.00%)d 1.00(100.00%)
  13. (0.00000) RY ( 6) O  1            s(  0.00%)p 1.00(  0.07%)d99.99( 99.93%)
  14. (0.00000) RY ( 7) O  1            s(  0.00%)p 1.00(  0.26%)d99.99( 99.74%)
  15. (0.00000) RY ( 8) O  1            s(  0.03%)p51.91(  1.51%)d99.99( 98.46%)
  16. (0.00000) RY ( 9) O  1            s(  0.00%)p 1.00(  0.11%)d99.99( 99.89%)
  17. (0.00139) RY ( 1) H  2            s( 96.98%)p 0.03(  3.02%)
                                         0.0020  0.9848  0.0000 -0.0773 -0.1557
  18. (0.00116) RY ( 2) H  2            s(  0.00%)p 1.00(100.00%)
                                         0.0000  0.0000  1.0000  0.0000  0.0000
  19. (0.00085) RY ( 3) H  2            s(  2.97%)p32.71( 97.03%)
                                         0.0019  0.1722  0.0000  0.5554  0.8136
  20. (0.00000) RY ( 4) H  2            s(  0.53%)p99.99( 99.47%)
  21. (0.00139) RY ( 1) H  3            s( 96.98%)p 0.03(  3.02%)
                                         0.0020  0.9848  0.0000  0.0773 -0.1557
  22. (0.00116) RY ( 2) H  3            s(  0.00%)p 1.00(100.00%)
                                         0.0000  0.0000  1.0000  0.0000  0.0000
  23. (0.00085) RY ( 3) H  3            s(  2.97%)p32.71( 97.03%)
                                         0.0019  0.1722  0.0000 -0.5554  0.8136
  24. (0.00000) RY ( 4) H  3            s(  0.53%)p99.99( 99.47%)


 NHO DIRECTIONALITY AND BOND BENDING (deviation from line of nuclear centers at
                                      the position of maximum hybrid amplitude)

         [Thresholds for printing:  angular deviation  >  1.0 degree]
                                    p- or d-character  > 25.0%
                                    orbital occupancy  >  0.10e

                        Line of Centers        Hybrid 1             Hybrid 2
                        ---------------  -------------------  ------------------
           NBO            Theta   Phi    Theta   Phi    Dev   Theta   Phi    Dev
 ===============================================================================
   2. LP ( 1) O  1          --     --     90.7  180.0   --      --     --    --
   3. LP ( 2) O  1          --     --      0.0    0.0   --      --     --    --
   4. BD ( 1) O  1- H  2  129.4   90.0   127.6   90.0   1.8     --     --    --
   5. BD ( 1) O  1- H  3  129.4  270.0   127.6  270.0   1.8     --     --    --


 NATURAL BOND ORBITALS (Summary):

           NBO                 Occupancy
 ========================================
 Molecular unit  1  (H2O)
 ------ Lewis ---------------------------
    1. CR ( 1) O  1             1.99998
    2. LP ( 1) O  1             1.99768
    3. LP ( 2) O  1             1.99759
    4. BD ( 1) O  1- H  2       1.99891
    5. BD ( 1) O  1- H  3       1.99891
 ------ non-Lewis -----------------------
    6. BD*( 1) O  1- H  2       0.00006
    7. BD*( 1) O  1- H  3       0.00006
    8. RY ( 1) O  1             0.00000
    9. RY ( 2) O  1             0.00000
   10. RY ( 3) O  1             0.00000
   11. RY ( 4) O  1             0.00000
   12. RY ( 5) O  1             0.00000
   13. RY ( 6) O  1             0.00000
   14. RY ( 7) O  1             0.00000
   15. RY ( 8) O  1             0.00000
   16. RY ( 9) O  1             0.00000
   17. RY ( 1) H  2             0.00139
   18. RY ( 2) H  2             0.00116
   19. RY ( 3) H  2             0.00085
   20. RY ( 4) H  2             0.00000
   21. RY ( 1) H  3             0.00139
   22. RY ( 2) H  3             0.00116
   23. RY ( 3) H  3             0.00085
   24. RY ( 4) H  3             0.00000
          -------------------------------
                 Total Lewis    9.99309  ( 99.9309%)
           Valence non-Lewis    0.00012  (  0.0012%)
           Rydberg non-Lewis    0.00680  (  0.0680%)
          -------------------------------
               Total unit  1   10.00000  (100.0000%)
              Charge unit  1    0.00000

 $CHOOSE
   LONE 1 2 END
   BOND S 1 2 S 1 3 END
 $END

 NBO analysis completed in 0.04 CPU seconds (0 wall seconds)
 Maximum scratch memory used by NBO was 146826 words
 Maximum scratch memory used by G09NBO was 11155 words

 Read Unf file /scr/martin/g09job990/Gau-3085.EUF:
 Label Gaussian matrix elements                                         IVers= 1 NLab= 2 Version=ES64L-G09RevE.01
 Title Water MP4/def2-SVP                                              
 NAtoms=     3 NBasis=    24 NBsUse=    24 ICharg=     0 Multip=     1 NE=    10 Len12L=8 Len4L=8
 Label GAUSSIAN SCALARS                                                 NI= 1 NR= 1 NTot=       1 LenBuf=    2000 N=    1000       1       1       1       1
 Label NPA CHARGES                                                      NI= 0 NR= 1 NTot=       3 LenBuf=    4000 N=       3       0       0       0       0
 Recovered energy= -76.1776373753     dipole=      0.000000000000      0.000000000000      0.000000000000
 Leave Link  612 at Tue Jan  9 19:12:54 2018, MaxMem=  4194304000 cpu:         1.9
 (Enter /home/chemsoft/gaussian/g09e01/g09/l110.exe)
 Numerical evaluation of force constants complete.
 Leave Link  110 at Tue Jan  9 19:12:54 2018, MaxMem=  4194304000 cpu:         0.2
 (Enter /home/chemsoft/gaussian/g09e01/g09/l716.exe)
 Full mass-weighted force constant matrix:
 Low frequencies --- -123.5636  -94.5190  -25.6012   -1.4893   -0.0551   22.7152
 Low frequencies --- 1664.9868 3873.8932 3972.3982
 Diagonal vibrational polarizability:
        0.0000000       0.0000000       0.0000000
 Harmonic frequencies (cm**-1), IR intensities (KM/Mole), Raman scattering
 activities (A**4/AMU), depolarization ratios for plane and unpolarized
 incident light, reduced masses (AMU), force constants (mDyne/A),
 and normal coordinates:
                      1                      2                      3
                     A1                     A1                     B2
 Frequencies --   1664.9863              3873.8931              3972.3977
 Red. masses --      1.0804                 1.0473                 1.0796
 Frc consts  --      1.7646                 9.2602                10.0369
 IR Inten    --      0.0000                 0.0000                 0.0000
  Atom  AN      X      Y      Z        X      Y      Z        X      Y      Z
     1   8    -0.00  -0.00  -0.07     0.00  -0.00   0.05    -0.00  -0.07  -0.00
     2   1     0.00   0.44   0.55     0.00   0.58  -0.41     0.00   0.55  -0.44
     3   1     0.00  -0.44   0.55    -0.00  -0.58  -0.41     0.00   0.55   0.44

 -------------------
 - Thermochemistry -
 -------------------
 Temperature   298.150 Kelvin.  Pressure   1.00000 Atm.
 Atom     1 has atomic number  8 and mass  15.99491
 Atom     2 has atomic number  1 and mass   1.00783
 Atom     3 has atomic number  1 and mass   1.00783
 Molecular mass:    18.01056 amu.
 Principal axes and moments of inertia in atomic units:
                           1         2         3
     Eigenvalues --     2.34257   4.05102   6.39359
           X            0.00000   0.00000   1.00000
           Y            1.00000  -0.00000  -0.00000
           Z            0.00000   1.00000  -0.00000
 This molecule is an asymmetric top.
 Rotational symmetry number  2.
 Rotational temperatures (Kelvin)     36.97388    21.38073    13.54698
 Rotational constants (GHZ):         770.41159   445.50265   282.27353
 Zero-point vibrational energy      56890.1 (Joules/Mol)
                                   13.59705 (Kcal/Mol)
 Vibrational temperatures:   2395.54  5573.66  5715.39
          (Kelvin)
 
 Zero-point correction=                           0.021668 (Hartree/Particle)
 Thermal correction to Energy=                    0.024503
 Thermal correction to Enthalpy=                  0.025447
 Thermal correction to Gibbs Free Energy=         0.004010
 Sum of electronic and zero-point Energies=            -76.156055
 Sum of electronic and thermal Energies=               -76.153220
 Sum of electronic and thermal Enthalpies=             -76.152276
 Sum of electronic and thermal Free Energies=          -76.173713
 
                     E (Thermal)             CV                S
                      KCal/Mol        Cal/Mol-Kelvin    Cal/Mol-Kelvin
 Total                   15.376              6.003             45.119
 Electronic               0.000              0.000              0.000
 Translational            0.889              2.981             34.608
 Rotational               0.889              2.981             10.505
 Vibrational             13.599              0.042              0.006
                       Q            Log10(Q)             Ln(Q)
 Total Bot       0.143056D-01         -1.844493         -4.247102
 Total V=0       0.132496D+09          8.122204         18.702066
 Vib (Bot)       0.108005D-09         -9.966557        -22.948845
 Vib (V=0)       0.100032D+01          0.000141          0.000324
 Electronic      0.100000D+01          0.000000          0.000000
 Translational   0.300432D+07          6.477746         14.915562
 Rotational      0.440877D+02          1.644317          3.786180
 ***** Axes restored to original set *****
 -------------------------------------------------------------------
 Center     Atomic                   Forces (Hartrees/Bohr)
 Number     Number              X              Y              Z
 -------------------------------------------------------------------
      1        8          -0.000029837   -0.000000000   -0.000024077
      2        1          -0.000017675   -0.000000000    0.000049533
      3        1           0.000044680    0.000000000   -0.000027742
 -------------------------------------------------------------------
 Cartesian Forces:  Max     0.000049533 RMS     0.000027892
 -----------------------------------------------------------------------------------------------
                       Internal Coordinate Forces (Hartree/Bohr or radian)
  Cent   Atom   N1       Length/X         N2         Alpha/Y        N3         Beta/Z          J
 -----------------------------------------------------------------------------------------------
      1  O 
      2  H        1   0.000050(     1)
      3  H        1   0.000050(     2)      2   0.000032(     3)
 -----------------------------------------------------------------------------------------------
 Internal  Forces:  Max     0.000049533 RMS     0.000044511
 Force constants in Cartesian coordinates: 
                1             2             3             4             5 
      1  0.561367D+00
      2  0.000000D+00 -0.443998D-04
      3 -0.936491D-01  0.000000D+00  0.601855D+00
      4 -0.435623D-01  0.000000D+00 -0.356471D-01  0.499773D-01
      5  0.000000D+00  0.221995D-04  0.000000D+00  0.000000D+00 -0.181467D-03
      6  0.267810D-01  0.000000D+00 -0.538049D+00 -0.173730D-01  0.000000D+00
      7 -0.517805D+00  0.000000D+00  0.129296D+00 -0.601894D-02  0.000000D+00
      8  0.000000D+00  0.221995D-04  0.000000D+00  0.000000D+00  0.159267D-03
      9  0.668680D-01  0.000000D+00 -0.638060D-01  0.529379D-01  0.000000D+00
                6             7             8             9 
      6  0.553062D+00
      7 -0.949696D-02  0.523428D+00
      8  0.000000D+00  0.000000D+00 -0.181467D-03
      9 -0.154094D-01 -0.119717D+00  0.000000D+00  0.796115D-01
 Force constants in internal coordinates: 
                1             2             3 
      1  0.553062D+00
      2 -0.602678D-02  0.553062D+00
      3  0.310922D-01  0.316300D-01  0.165937D+00
 Leave Link  716 at Tue Jan  9 19:12:54 2018, MaxMem=  4194304000 cpu:         1.9
 (Enter /home/chemsoft/gaussian/g09e01/g09/l103.exe)

 GradGradGradGradGradGradGradGradGradGradGradGradGradGradGradGradGradGrad
 Berny optimization.
 Search for a local minimum.
 Step number   1 out of a maximum of    2
 All quantities printed in internal units (Hartrees-Bohrs-Radians)
 Second derivative matrix not updated -- analytic derivatives used.
 The second derivative matrix:
                         bond      angle
           bond         1.09407
           angle        0.06272   0.16594
 ITU=  0
     Eigenvalues ---    0.16172   1.09829
 Angle between quadratic step and forces=  45.57 degrees.
 Linear search not attempted -- first point.
 Variable       Old X    -DE/DX   Delta X   Delta X   Delta X     New X
                                 (Linear)    (Quad)   (Total)
   bond       1.82166   0.00010   0.00000   0.00008   0.00008   1.82174
  angle       1.78369   0.00003   0.00000   0.00016   0.00016   1.78385
         Item               Value     Threshold  Converged?
 Maximum Force            0.000099     0.000450     YES
 RMS     Force            0.000074     0.000300     YES
 Maximum Displacement     0.000163     0.001800     YES
 RMS     Displacement     0.000129     0.001200     YES
 Predicted change in Energy=-6.651143D-09
 Optimization completed.
    -- Stationary point found.
                       ----------------------------
                       !   Optimized Parameters   !
                       ! (Angstroms and Degrees)  !
 ----------------------                            ----------------------
 !      Name          Value   Derivative information (Atomic Units)     !
 ------------------------------------------------------------------------
 !      bond         0.964    -DE/DX =    0.0001                        !
 !      angle      102.1977   -DE/DX =    0.0                           !
 ------------------------------------------------------------------------
 GradGradGradGradGradGradGradGradGradGradGradGradGradGradGradGradGradGrad

 Leave Link  103 at Tue Jan  9 19:12:54 2018, MaxMem=  4194304000 cpu:         0.3
 (Enter /home/chemsoft/gaussian/g09e01/g09/l9999.exe)

 Test job not archived.
 1\1\GINC-LENOX07\Freq\RMP4SDTQ-FC\def2SVP\H2O1\MARTIN\09-Jan-2018\1\\#
 p MP4/def2SVP freq geom=check guess=read gfinput gfoldprint iop(6/7=3)
  scrf(pcm,solvent=toluene) pop=full pop=nbo6 pop=allorbitals symmetry=
 loose\\Water MP4/def2-SVP\\0,1\O\H,1,bond\H,1,bond,2,angle\\bond=0.963
 97892\angle=102.19772382\\Version=ES64L-G09RevE.01\State=1-A1\HF=-75.9
 640464\MP2=-76.1655802\MP3=-76.172419\MP4D=-76.1758214\MP4DQ=-76.17408
 57\MP4SDQ=-76.1747795\MP4SDTQ=-76.1777234\RMSD=6.822e-09\RMSF=2.789e-0
 5\ZeroPoint=0.0216683\Thermal=0.0245033\PG=C02V [C2(O1),SGV(H2)]\NImag
 =0\\0.56136724,0.,-0.00004440,-0.09364909,0.,0.60185475,-0.04356226,0.
 ,-0.03564714,0.04997733,0.,0.00002220,0.,0.,-0.00018147,0.02678104,0.,
 -0.53804873,-0.01737303,0.,0.55306198,-0.51780498,0.,0.12929623,-0.006
 01894,0.,-0.00949696,0.52342778,0.,0.00002220,0.,0.,0.00015927,0.,0.,-
 0.00018147,0.06686804,0.,-0.06380602,0.05293786,0.,-0.01540939,-0.1197
 1695,0.,0.07961154\\0.00002984,0.,0.00002408,0.00001768,0.,-0.00004953
 ,-0.00004468,0.,0.00002774\\\@


 I LOVE MANKIND - IT'S PEOPLE I CAN'T STAND.
     -- LINUS OF PEANUTS
 Job cpu time:       0 days  0 hours 12 minutes 26.7 seconds.
 File lengths (MBytes):  RWF=     52 Int=      0 D2E=      0 Chk=     38 Scr=      1
 Normal termination of Gaussian 09 at Tue Jan  9 19:12:54 2018.
