 Entering Gaussian System, Link 0=g09
 Input=h2o.b2plyp.def2svp.nbo6.gjf
 Output=h2o.b2plyp.def2svp.nbo6.log
 Initial command:
 /home/chemsoft/gaussian/g09e01/g09/l1.exe "/scr/martin/g09job979/Gau-26430.inp" -scrdir="/scr/martin/g09job979/"
 Entering Link 1 = /home/chemsoft/gaussian/g09e01/g09/l1.exe PID=     26431.
  
 Copyright (c) 1988,1990,1992,1993,1995,1998,2003,2009,2015,
            Gaussian, Inc.  All Rights Reserved.
  
 This is part of the Gaussian(R) 09 program.  It is based on
 the Gaussian(R) 03 system (copyright 2003, Gaussian, Inc.),
 the Gaussian(R) 98 system (copyright 1998, Gaussian, Inc.),
 the Gaussian(R) 94 system (copyright 1995, Gaussian, Inc.),
 the Gaussian 92(TM) system (copyright 1992, Gaussian, Inc.),
 the Gaussian 90(TM) system (copyright 1990, Gaussian, Inc.),
 the Gaussian 88(TM) system (copyright 1988, Gaussian, Inc.),
 the Gaussian 86(TM) system (copyright 1986, Carnegie Mellon
 University), and the Gaussian 82(TM) system (copyright 1983,
 Carnegie Mellon University). Gaussian is a federally registered
 trademark of Gaussian, Inc.
  
 This software contains proprietary and confidential information,
 including trade secrets, belonging to Gaussian, Inc.
  
 This software is provided under written license and may be
 used, copied, transmitted, or stored only in accord with that
 written license.
  
 The following legend is applicable only to US Government
 contracts under FAR:
  
                    RESTRICTED RIGHTS LEGEND
  
 Use, reproduction and disclosure by the US Government is
 subject to restrictions as set forth in subparagraphs (a)
 and (c) of the Commercial Computer Software - Restricted
 Rights clause in FAR 52.227-19.
  
 Gaussian, Inc.
 340 Quinnipiac St., Bldg. 40, Wallingford CT 06492
  
  
 ---------------------------------------------------------------
 Warning -- This program may not be used in any manner that
 competes with the business of Gaussian, Inc. or will provide
 assistance to any competitor of Gaussian, Inc.  The licensee
 of this program is prohibited from giving any competitor of
 Gaussian, Inc. access to this program.  By using this program,
 the user acknowledges that Gaussian, Inc. is engaged in the
 business of creating and licensing software in the field of
 computational chemistry and represents and warrants to the
 licensee that it is not a competitor of Gaussian, Inc. and that
 it will not use this program in any manner prohibited above.
 ---------------------------------------------------------------
  

 Cite this work as:
 Gaussian 09, Revision E.01,
 M. J. Frisch, G. W. Trucks, H. B. Schlegel, G. E. Scuseria, 
 M. A. Robb, J. R. Cheeseman, G. Scalmani, V. Barone, B. Mennucci, 
 G. A. Petersson, H. Nakatsuji, M. Caricato, X. Li, H. P. Hratchian, 
 A. F. Izmaylov, J. Bloino, G. Zheng, J. L. Sonnenberg, M. Hada, 
 M. Ehara, K. Toyota, R. Fukuda, J. Hasegawa, M. Ishida, T. Nakajima, 
 Y. Honda, O. Kitao, H. Nakai, T. Vreven, J. A. Montgomery, Jr., 
 J. E. Peralta, F. Ogliaro, M. Bearpark, J. J. Heyd, E. Brothers, 
 K. N. Kudin, V. N. Staroverov, T. Keith, R. Kobayashi, J. Normand, 
 K. Raghavachari, A. Rendell, J. C. Burant, S. S. Iyengar, J. Tomasi, 
 M. Cossi, N. Rega, J. M. Millam, M. Klene, J. E. Knox, J. B. Cross, 
 V. Bakken, C. Adamo, J. Jaramillo, R. Gomperts, R. E. Stratmann, 
 O. Yazyev, A. J. Austin, R. Cammi, C. Pomelli, J. W. Ochterski, 
 R. L. Martin, K. Morokuma, V. G. Zakrzewski, G. A. Voth, 
 P. Salvador, J. J. Dannenberg, S. Dapprich, A. D. Daniels, 
 O. Farkas, J. B. Foresman, J. V. Ortiz, J. Cioslowski, 
 and D. J. Fox, Gaussian, Inc., Wallingford CT, 2013.
 
 ******************************************
 Gaussian 09:  ES64L-G09RevE.01 30-Nov-2015
                 9-Jan-2018 
 ******************************************
 %chk=h2o.b2plyp.def2svp.nbo6.chk
 %nproc=8
 Will use up to    8 processors via shared memory.
 %mem=32000MB
 ----------------------------------------------------------------------
 #p b2plyp/def2SVP opt scf(xqc) gfinput gfoldprint iop(6/7=3) scrf(pcm,
 solvent=toluene) pop=full pop=nbo6 pop=allorbitals symmetry=loose
 ----------------------------------------------------------------------
 1/14=-1,18=20,19=15,38=1/1,3;
 2/9=110,12=2,17=4,18=3,40=1/2;
 3/5=43,7=101,11=9,16=1,24=11,25=1,30=1,70=2201,71=1,72=13,74=-47/1,2,3;
 4//1;
 5/5=2,8=3,13=1,38=5,53=13/2,8;
 8/6=4,10=1/1;
 9/15=2,16=-3/6;
 10/5=1/2;
 6/7=3,40=1,87=-1,113=1,114=1,124=3103/1,12;
 7/12=2/1,2,3,16;
 1/14=-1,18=20,19=15/3(2);
 2/9=110/2;
 99//99;
 2/9=110/2;
 3/5=43,7=101,11=9,16=1,25=1,30=1,70=2205,71=1,72=13,74=-47/1,2,3;
 4/5=5,16=3,69=1/1;
 5/5=2,8=3,13=1,38=5,53=13/2,8;
 8/6=4,10=1/1;
 9/15=2,16=-3/6;
 10/5=1/2;
 7/12=2/1,2,3,16;
 1/14=-1,18=20,19=15/3(-8);
 2/9=110/2;
 6/7=3,40=1,87=-1,113=1,114=1,124=3103/1,12;
 99//99;
 Leave Link    1 at Tue Jan  9 18:47:50 2018, MaxMem=  4194304000 cpu:         0.8
 (Enter /home/chemsoft/gaussian/g09e01/g09/l101.exe)
 ---------------------
 Water B2PLYP/def2-SVP
 ---------------------
 Symbolic Z-matrix:
 Charge =  0 Multiplicity = 1
 O
 H                    1    bond
 H                    1    bond     2    angle
       Variables:
  bond                  1.2                      
  angle               109.                       
 
 Add virtual bond connecting atoms H2         and O1         Dist= 2.27D+00.
 Add virtual bond connecting atoms H3         and O1         Dist= 2.27D+00.
 NAtoms=      3 NQM=        3 NQMF=       0 NMMI=      0 NMMIF=      0
                NMic=       0 NMicF=      0.
                    Isotopes and Nuclear Properties:
 (Nuclear quadrupole moments (NQMom) in fm**2, nuclear magnetic moments (NMagM)
  in nuclear magnetons)

  Atom         1           2           3
 IAtWgt=          16           1           1
 AtmWgt=  15.9949146   1.0078250   1.0078250
 NucSpn=           0           1           1
 AtZEff=   0.0000000   0.0000000   0.0000000
 NQMom=    0.0000000   0.0000000   0.0000000
 NMagM=    0.0000000   2.7928460   2.7928460
 AtZNuc=   8.0000000   1.0000000   1.0000000
 Leave Link  101 at Tue Jan  9 18:47:51 2018, MaxMem=  4194304000 cpu:         1.6
 (Enter /home/chemsoft/gaussian/g09e01/g09/l103.exe)

 GradGradGradGradGradGradGradGradGradGradGradGradGradGradGradGradGradGrad
 Berny optimization.
 Initialization pass.
                           ----------------------------
                           !    Initial Parameters    !
                           ! (Angstroms and Degrees)  !
 --------------------------                            --------------------------
 ! Name  Definition              Value          Derivative Info.                !
 --------------------------------------------------------------------------------
 ! R1    R(1,2)                  1.2            estimate D2E/DX2                !
 ! R2    R(1,3)                  1.2            estimate D2E/DX2                !
 ! A1    A(2,1,3)              109.0            estimate D2E/DX2                !
 --------------------------------------------------------------------------------
 Trust Radius=3.00D-01 FncErr=1.00D-07 GrdErr=1.00D-07
 Number of steps in this run=     20 maximum allowed number of steps=    100.
 GradGradGradGradGradGradGradGradGradGradGradGradGradGradGradGradGradGrad

 Leave Link  103 at Tue Jan  9 18:47:51 2018, MaxMem=  4194304000 cpu:         0.0
 (Enter /home/chemsoft/gaussian/g09e01/g09/l202.exe)
                          Input orientation:                          
 ---------------------------------------------------------------------
 Center     Atomic      Atomic             Coordinates (Angstroms)
 Number     Number       Type             X           Y           Z
 ---------------------------------------------------------------------
      1          8           0        0.000000    0.000000    0.000000
      2          1           0        0.000000    0.000000    1.200000
      3          1           0        1.134622    0.000000   -0.390682
 ---------------------------------------------------------------------
                    Distance matrix (angstroms):
                    1          2          3
     1  O    0.000000
     2  H    1.200000   0.000000
     3  H    1.200000   1.953877   0.000000
 Stoichiometry    H2O
 Framework group  C2V[C2(O),SGV(H2)]
 Deg. of freedom     2
 Full point group                 C2V     NOp   4
 Largest Abelian subgroup         C2V     NOp   4
 Largest concise Abelian subgroup C2      NOp   2
                         Standard orientation:                         
 ---------------------------------------------------------------------
 Center     Atomic      Atomic             Coordinates (Angstroms)
 Number     Number       Type             X           Y           Z
 ---------------------------------------------------------------------
      1          8           0        0.000000    0.000000    0.139369
      2          1           0       -0.000000    0.976939   -0.557475
      3          1           0       -0.000000   -0.976939   -0.557475
 ---------------------------------------------------------------------
 Rotational constants (GHZ):    581.4025008    262.7044919    180.9451289
 Leave Link  202 at Tue Jan  9 18:47:51 2018, MaxMem=  4194304000 cpu:         0.2
 (Enter /home/chemsoft/gaussian/g09e01/g09/l301.exe)
 Standard basis: def2SVP (5D, 7F)
 ======================================================================================================
                                       Pseudopotential Parameters
 ======================================================================================================
  Center     Atomic      Valence      Angular      Power
  Number     Number     Electrons     Momentum     of R      Exponent        Coefficient   SO-Coeffient
 ======================================================================================================
    1          8
                                   No pseudopotential on this center.
    2          1
                                   No pseudopotential on this center.
    3          1
                                   No pseudopotential on this center.
 ======================================================================================================
 Ernie: Thresh=  0.10000D-02 Tol=  0.10000D-05 Strict=F.
 AO basis set in the form of general basis input (Overlap normalization):
      1 0
 S   5 1.00       0.000000000000
      0.2266176779D+04 -0.5389350392D-02
      0.3408701019D+03 -0.4023472139D-01
      0.7736313517D+02 -0.1800818421D+00
      0.2147964494D+02 -0.4682885766D+00
      0.6658943312D+01 -0.4469261716D+00
 S   1 1.00       0.000000000000
      0.8097597567D+00  0.1000000000D+01
 S   1 1.00       0.000000000000
      0.2553077223D+00  0.1000000000D+01
 P   3 1.00       0.000000000000
      0.1772150432D+02  0.6263024876D-01
      0.3863550544D+01  0.3333113848D+00
      0.1048092088D+01  0.7414863831D+00
 P   1 1.00       0.000000000000
      0.2764154441D+00  0.1000000000D+01
 D   1 1.00       0.000000000000
      0.1200000000D+01  0.1000000000D+01
 ****
      2 0
 S   3 1.00       0.000000000000
      0.1301070100D+02  0.3348548481D-01
      0.1962257200D+01  0.2347218709D+00
      0.4445379600D+00  0.8137702853D+00
 S   1 1.00       0.000000000000
      0.1219496200D+00  0.1000000000D+01
 P   1 1.00       0.000000000000
      0.8000000000D+00  0.1000000000D+01
 ****
      3 0
 S   3 1.00       0.000000000000
      0.1301070100D+02  0.3348548481D-01
      0.1962257200D+01  0.2347218709D+00
      0.4445379600D+00  0.8137702853D+00
 S   1 1.00       0.000000000000
      0.1219496200D+00  0.1000000000D+01
 P   1 1.00       0.000000000000
      0.8000000000D+00  0.1000000000D+01
 ****

 ***********************************************************************************************************************************
 *             ATOMIC CENTER             *        ATOMIC ORBITAL       *                     GAUSSIAN FUNCTIONS                    *
 ***********************************************************************************************************************************
 *                                       * FUNCTION    SHELL    SCALE  *                                                           *
 *    ATOM   X-COORD  Y-COORD  Z-COORD   *  NUMBER     TYPE     FACTOR *  EXPONENT    S-COEF      P-COEF      D-COEF      F-COEF   *
 ***********************************************************************************************************************************
 *     O      0.00000 -0.00000  0.26337                                                                                            *
+                                                1   S           1.00                                                               
+                                                                      0.226618D+04-.126159D+010.000000D+000.000000D+000.000000D+00 
 *                                                                     0.340870D+03-.227485D+010.000000D+000.000000D+000.000000D+00*
 *                                                                     0.773631D+02-.334796D+010.000000D+000.000000D+000.000000D+00*
 *                                                                     0.214796D+02-.333000D+010.000000D+000.000000D+000.000000D+00*
 *                                                                     0.665894D+01-.132038D+010.000000D+000.000000D+000.000000D+00*
 *                                               2   S           1.00                                                              *
+                                                                      0.809760D+000.608383D+000.000000D+000.000000D+000.000000D+00 
 *                                               3   S           1.00                                                              *
+                                                                      0.255308D+000.255981D+000.000000D+000.000000D+000.000000D+00 
 *                                           4-  6   P           1.00                                                              *
+                                                                      0.177215D+020.000000D+000.324601D+010.000000D+000.000000D+00 
 *                                                                     0.386355D+010.000000D+000.257350D+010.000000D+000.000000D+00*
 *                                                                     0.104809D+010.000000D+000.112084D+010.000000D+000.000000D+00*
 *                                           7-  9   P           1.00                                                              *
+                                                                      0.276415D+000.000000D+000.285689D+000.000000D+000.000000D+00 
 *                                          10- 14   D           1.00                                                              *
+                                                                      0.120000D+010.000000D+000.000000D+000.226452D+010.000000D+00 
 *---------------------------------------------------------------------------------------------------------------------------------*
 *     H     -0.00000  1.84615 -1.05347                                                                                            *
+                                               15   S           1.00                                                               
+                                                                      0.130107D+020.163490D+000.000000D+000.000000D+000.000000D+00 
 *                                                                     0.196226D+010.277352D+000.000000D+000.000000D+000.000000D+00*
 *                                                                     0.444538D+000.315750D+000.000000D+000.000000D+000.000000D+00*
 *                                              16   S           1.00                                                              *
+                                                                      0.121950D+000.147077D+000.000000D+000.000000D+000.000000D+00 
 *                                          17- 19   P           1.00                                                              *
+                                                                      0.800000D+000.000000D+000.107846D+010.000000D+000.000000D+00 
 *---------------------------------------------------------------------------------------------------------------------------------*
 *     H     -0.00000 -1.84615 -1.05347                                                                                            *
+                                               20   S           1.00                                                               
+                                                                      0.130107D+020.163490D+000.000000D+000.000000D+000.000000D+00 
 *                                                                     0.196226D+010.277352D+000.000000D+000.000000D+000.000000D+00*
 *                                                                     0.444538D+000.315750D+000.000000D+000.000000D+000.000000D+00*
 *                                              21   S           1.00                                                              *
+                                                                      0.121950D+000.147077D+000.000000D+000.000000D+000.000000D+00 
 *                                          22- 24   P           1.00                                                              *
+                                                                      0.800000D+000.000000D+000.107846D+010.000000D+000.000000D+00 
 ***********************************************************************************************************************************
 There are    12 symmetry adapted cartesian basis functions of A1  symmetry.
 There are     2 symmetry adapted cartesian basis functions of A2  symmetry.
 There are     4 symmetry adapted cartesian basis functions of B1  symmetry.
 There are     7 symmetry adapted cartesian basis functions of B2  symmetry.
 There are    11 symmetry adapted basis functions of A1  symmetry.
 There are     2 symmetry adapted basis functions of A2  symmetry.
 There are     4 symmetry adapted basis functions of B1  symmetry.
 There are     7 symmetry adapted basis functions of B2  symmetry.
    24 basis functions,    39 primitive gaussians,    25 cartesian basis functions
     5 alpha electrons        5 beta electrons
       nuclear repulsion energy         7.3265305337 Hartrees.
 IExCor=  419 DFT=T Ex+Corr=B2PLYP ExCW=0 ScaHFX=  0.530000
 ScaDFX=  0.470000  0.470000  0.730000  0.730000 ScalE2=  0.270000  0.270000
 IRadAn=      0 IRanWt=     -1 IRanGd=            0 ICorTp=0 IEmpDi=  4
 NAtoms=    3 NActive=    3 NUniq=    2 SFac= 2.25D+00 NAtFMM=   60 NAOKFM=F Big=F
 Integral buffers will be    131072 words long.
 Regular integral format.
 Two-electron integral symmetry is turned on.
 ------------------------------------------------------------------------------
 Polarizable Continuum Model (PCM)
 =================================
 Model                : PCM (using non-symmetric T matrix).
 Atomic radii         : UFF (Universal Force Field).
 Polarization charges : Total charges.
 Charge compensation  : None.
 Solution method      : On-the-fly selection.
 Cavity type          : Scaled VdW (van der Waals Surface) (Alpha=1.100).
 Cavity algorithm     : GePol (No added spheres)
                        Default sphere list used, NSphG=    3.
                        Lebedev-Laikov grids with approx.  5.0 points / Ang**2.
                        Smoothing algorithm: York/Karplus (Gamma=1.0000).
                        Polarization charges: spherical gaussians, with
                                              point-specific exponents (IZeta= 3).
                        Self-potential: point-specific (ISelfS= 7).
                        Self-field    : sphere-specific E.n sum rule (ISelfD= 2).
 1st derivatives      : Analytical E(r).r(x)/FMM algorithm (CHGder, D1EAlg=3).
                        Cavity 1st derivative terms included.
 Solvent              : Toluene, Eps=   2.374100 Eps(inf)=   2.238315
 ------------------------------------------------------------------------------
 Spheres list:
 ISph  on   Nord     Re0    Alpha      Xe            Ye            Ze
    1   O      1    1.7500  1.100      0.000000     -0.000000      0.139369
    2   H      2    1.4430  1.100     -0.000000      0.976939     -0.557475
    3   H      3    1.4430  1.100     -0.000000     -0.976939     -0.557475
 ------------------------------------------------------------------------------
 GePol: Number of generator spheres                  =       3
 GePol: Total number of spheres                      =       3
 GePol: Number of exposed spheres                    =       3 (100.00%)
 GePol: Number of points                             =     412
 GePol: Average weight of points                     =       0.15
 GePol: Minimum weight of points                     =   0.11D-04
 GePol: Maximum weight of points                     =    0.20212
 GePol: Number of points with low weight             =      16
 GePol: Fraction of low-weight points (<1% of avg)   =       3.88%
 GePol: Cavity surface area                          =     59.834 Ang**2
 GePol: Cavity volume                                =     40.969 Ang**3
 Leave Link  301 at Tue Jan  9 18:47:51 2018, MaxMem=  4194304000 cpu:         0.9
 (Enter /home/chemsoft/gaussian/g09e01/g09/l302.exe)
 NPDir=0 NMtPBC=     1 NCelOv=     1 NCel=       1 NClECP=     1 NCelD=      1
         NCelK=      1 NCelE2=     1 NClLst=     1 CellRange=     0.0.
 One-electron integrals computed using PRISM.
 One-electron integral symmetry used in STVInt
   4 Symmetry operations used in ECPInt.
 ECPInt:  NShTT=      78 NPrTT=     272 LenC2=      79 LenP2D=     265.
 LDataN:  DoStor=T MaxTD1= 4 Len=   56
 NBasis=    24 RedAO= T EigKep=  1.04D-01  NBF=    11     2     4     7
 NBsUse=    24 1.00D-06 EigRej= -1.00D+00 NBFU=    11     2     4     7
 Precomputing XC quadrature grid using
 IXCGrd= 4 IRadAn=           0 IRanWt=          -1 IRanGd=           0 AccXCQ= 0.00D+00.
 Generated NRdTot=       0 NPtTot=           0 NUsed=           0 NTot=          32
 NSgBfM=    25    25    25    25    25 MxSgAt=     3 MxSgA2=     3.
 Leave Link  302 at Tue Jan  9 18:47:51 2018, MaxMem=  4194304000 cpu:         1.1
 (Enter /home/chemsoft/gaussian/g09e01/g09/l303.exe)
 DipDrv:  MaxL=1.
 Leave Link  303 at Tue Jan  9 18:47:51 2018, MaxMem=  4194304000 cpu:         0.7
 (Enter /home/chemsoft/gaussian/g09e01/g09/l401.exe)
 ExpMin= 1.22D-01 ExpMax= 2.27D+03 ExpMxC= 3.41D+02 IAcc=1 IRadAn=         1 AccDes= 0.00D+00
 Harris functional with IExCor=  419 and IRadAn=       1 diagonalized for initial guess.
 HarFok:  IExCor=  419 AccDes= 0.00D+00 IRadAn=         1 IDoV= 1 UseB2=F ITyADJ=14
 ICtDFT=  3500011 ScaDFX=  1.000000  1.000000  1.000000  1.000000
 FoFCou: FMM=F IPFlag=           0 FMFlag=      100000 FMFlg1=           0
         NFxFlg=           0 DoJE=T BraDBF=F KetDBF=T FulRan=T
         wScrn=  0.000000 ICntrl=     500 IOpCl=  0 I1Cent=   200000004 NGrid=           0
         NMat0=    1 NMatS0=      1 NMatT0=    0 NMatD0=    1 NMtDS0=    0 NMtDT0=    0
 Petite list used in FoFCou.
 Harris En= -76.3297821840993    
 JPrj=0 DoOrth=F DoCkMO=F.
 Initial guess orbital symmetries:
       Occupied  (A1) (A1) (B2) (A1) (B1)
       Virtual   (A1) (B2) (A1) (B2) (A1) (B1) (B2) (A1) (A2) (A1)
                 (B1) (B2) (B2) (A1) (B1) (A2) (A1) (A1) (B2)
 The electronic state of the initial guess is 1-A1.
 Leave Link  401 at Tue Jan  9 18:47:52 2018, MaxMem=  4194304000 cpu:         1.3
 (Enter /home/chemsoft/gaussian/g09e01/g09/l502.exe)
 Closed shell SCF:
 Using DIIS extrapolation, IDIIS=  1040.
 Integral symmetry usage will be decided dynamically.
 Keep R1 ints in memory in symmetry-blocked form, NReq=3108470.
 IVT=        8281 IEndB=        8281 NGot=  4194304000 MDV=  4194282021
 LenX=  4194282021 LenY=  4194280955
 Requested convergence on RMS density matrix=1.00D-08 within  64 cycles.
 Requested convergence on MAX density matrix=1.00D-06.
 Requested convergence on             energy=1.00D-06.
 No special actions if energy rises.
 FoFCou: FMM=F IPFlag=           0 FMFlag=           0 FMFlg1=           0
         NFxFlg=           0 DoJE=F BraDBF=F KetDBF=F FulRan=T
         wScrn=  0.000000 ICntrl=     600 IOpCl=  0 I1Cent=           0 NGrid=           0
         NMat0=    1 NMatS0=    300 NMatT0=    0 NMatD0=    1 NMtDS0=    0 NMtDT0=    0
 Petite list used in FoFCou.

 Cycle   1  Pass 1  IDiag  1:
 Inv3:  Mode=1 IEnd=      509232.
 Iteration    1 A*A^-1 deviation from unit magnitude is 2.33D-15 for    168.
 Iteration    1 A*A^-1 deviation from orthogonality  is 1.90D-15 for    310     20.
 Iteration    1 A^-1*A deviation from unit magnitude is 2.33D-15 for     16.
 Iteration    1 A^-1*A deviation from orthogonality  is 9.28D-16 for    399     98.
 E= -76.0823052218550    
 DIIS: error= 7.43D-02 at cycle   1 NSaved=   1.
 NSaved= 1 IEnMin= 1 EnMin= -76.0823052218550     IErMin= 1 ErrMin= 7.43D-02
 ErrMax= 7.43D-02  0.00D+00 EMaxC= 1.00D-01 BMatC= 8.94D-02 BMatP= 8.94D-02
 IDIUse=3 WtCom= 2.57D-01 WtEn= 7.43D-01
 Coeff-Com:  0.100D+01
 Coeff-En:   0.100D+01
 Coeff:      0.100D+01
 Gap=     0.280 Goal=   None    Shift=    0.000
 GapD=    0.280 DampG=1.000 DampE=0.500 DampFc=0.5000 IDamp=-1.
 Damping current iteration by 5.00D-01
 RMSDP=1.70D-02 MaxDP=1.51D-01              OVMax= 1.96D-01

 Cycle   2  Pass 1  IDiag  1:
 E= -76.1123177566490     Delta-E=       -0.030012534794 Rises=F Damp=T
 DIIS: error= 1.36D-02 at cycle   2 NSaved=   2.
 NSaved= 2 IEnMin= 2 EnMin= -76.1123177566490     IErMin= 2 ErrMin= 1.36D-02
 ErrMax= 1.36D-02  0.00D+00 EMaxC= 1.00D-01 BMatC= 3.80D-03 BMatP= 8.94D-02
 IDIUse=3 WtCom= 8.64D-01 WtEn= 1.36D-01
 Coeff-Com:  0.110D+00 0.890D+00
 Coeff-En:   0.186D+00 0.814D+00
 Coeff:      0.120D+00 0.880D+00
 Gap=     0.402 Goal=   None    Shift=    0.000
 RMSDP=2.01D-03 MaxDP=2.43D-02 DE=-3.00D-02 OVMax= 1.04D-01

 Cycle   3  Pass 1  IDiag  1:
 E= -76.1536058881793     Delta-E=       -0.041288131530 Rises=F Damp=F
 DIIS: error= 1.62D-03 at cycle   3 NSaved=   3.
 NSaved= 3 IEnMin= 3 EnMin= -76.1536058881793     IErMin= 3 ErrMin= 1.62D-03
 ErrMax= 1.62D-03  0.00D+00 EMaxC= 1.00D-01 BMatC= 5.43D-05 BMatP= 3.80D-03
 IDIUse=3 WtCom= 9.84D-01 WtEn= 1.62D-02
 Coeff-Com:  0.855D-02-0.204D-01 0.101D+01
 Coeff-En:   0.000D+00 0.000D+00 0.100D+01
 Coeff:      0.841D-02-0.201D-01 0.101D+01
 Gap=     0.413 Goal=   None    Shift=    0.000
 RMSDP=3.05D-04 MaxDP=2.96D-03 DE=-4.13D-02 OVMax= 2.24D-03

 Cycle   4  Pass 1  IDiag  1:
 E= -76.1536623500596     Delta-E=       -0.000056461880 Rises=F Damp=F
 DIIS: error= 6.87D-04 at cycle   4 NSaved=   4.
 NSaved= 4 IEnMin= 4 EnMin= -76.1536623500596     IErMin= 4 ErrMin= 6.87D-04
 ErrMax= 6.87D-04  0.00D+00 EMaxC= 1.00D-01 BMatC= 4.86D-06 BMatP= 5.43D-05
 IDIUse=3 WtCom= 9.93D-01 WtEn= 6.87D-03
 Coeff-Com:  0.230D-02-0.252D-01 0.579D-01 0.965D+00
 Coeff-En:   0.000D+00 0.000D+00 0.000D+00 0.100D+01
 Coeff:      0.229D-02-0.250D-01 0.575D-01 0.965D+00
 Gap=     0.414 Goal=   None    Shift=    0.000
 RMSDP=6.91D-05 MaxDP=9.26D-04 DE=-5.65D-05 OVMax= 7.60D-04

 Cycle   5  Pass 1  IDiag  1:
 E= -76.1536665302935     Delta-E=       -0.000004180234 Rises=F Damp=F
 DIIS: error= 1.25D-04 at cycle   5 NSaved=   5.
 NSaved= 5 IEnMin= 5 EnMin= -76.1536665302935     IErMin= 5 ErrMin= 1.25D-04
 ErrMax= 1.25D-04  0.00D+00 EMaxC= 1.00D-01 BMatC= 1.23D-07 BMatP= 4.86D-06
 IDIUse=3 WtCom= 9.99D-01 WtEn= 1.25D-03
 Coeff-Com:  0.399D-03 0.169D-02-0.311D-01-0.103D+00 0.113D+01
 Coeff-En:   0.000D+00 0.000D+00 0.000D+00 0.000D+00 0.100D+01
 Coeff:      0.399D-03 0.169D-02-0.310D-01-0.103D+00 0.113D+01
 Gap=     0.414 Goal=   None    Shift=    0.000
 RMSDP=1.56D-05 MaxDP=2.23D-04 DE=-4.18D-06 OVMax= 1.86D-04

 Cycle   6  Pass 1  IDiag  1:
 E= -76.1536666739665     Delta-E=       -0.000000143673 Rises=F Damp=F
 DIIS: error= 6.49D-06 at cycle   6 NSaved=   6.
 NSaved= 6 IEnMin= 6 EnMin= -76.1536666739665     IErMin= 6 ErrMin= 6.49D-06
 ErrMax= 6.49D-06  0.00D+00 EMaxC= 1.00D-01 BMatC= 4.30D-10 BMatP= 1.23D-07
 IDIUse=1 WtCom= 1.00D+00 WtEn= 0.00D+00
 Coeff-Com: -0.466D-04-0.252D-03 0.425D-02 0.166D-01-0.204D+00 0.118D+01
 Coeff:     -0.466D-04-0.252D-03 0.425D-02 0.166D-01-0.204D+00 0.118D+01
 Gap=     0.414 Goal=   None    Shift=    0.000
 RMSDP=1.39D-06 MaxDP=1.40D-05 DE=-1.44D-07 OVMax= 1.42D-05

 Cycle   7  Pass 1  IDiag  1:
 E= -76.1536666746810     Delta-E=       -0.000000000715 Rises=F Damp=F
 DIIS: error= 8.15D-07 at cycle   7 NSaved=   7.
 NSaved= 7 IEnMin= 7 EnMin= -76.1536666746810     IErMin= 7 ErrMin= 8.15D-07
 ErrMax= 8.15D-07  0.00D+00 EMaxC= 1.00D-01 BMatC= 8.19D-12 BMatP= 4.30D-10
 IDIUse=1 WtCom= 1.00D+00 WtEn= 0.00D+00
 Coeff-Com:  0.121D-04 0.172D-04-0.472D-03-0.154D-02 0.213D-01-0.159D+00
 Coeff-Com:  0.114D+01
 Coeff:      0.121D-04 0.172D-04-0.472D-03-0.154D-02 0.213D-01-0.159D+00
 Coeff:      0.114D+01
 Gap=     0.414 Goal=   None    Shift=    0.000
 RMSDP=1.47D-07 MaxDP=1.06D-06 DE=-7.15D-10 OVMax= 1.90D-06

 Cycle   8  Pass 1  IDiag  1:
 E= -76.1536666746944     Delta-E=       -0.000000000013 Rises=F Damp=F
 DIIS: error= 1.31D-07 at cycle   8 NSaved=   8.
 NSaved= 8 IEnMin= 8 EnMin= -76.1536666746944     IErMin= 8 ErrMin= 1.31D-07
 ErrMax= 1.31D-07  0.00D+00 EMaxC= 1.00D-01 BMatC= 1.95D-13 BMatP= 8.19D-12
 IDIUse=1 WtCom= 1.00D+00 WtEn= 0.00D+00
 Coeff-Com: -0.187D-05 0.140D-05 0.711D-05-0.982D-04 0.630D-03 0.854D-02
 Coeff-Com: -0.358D+00 0.135D+01
 Coeff:     -0.187D-05 0.140D-05 0.711D-05-0.982D-04 0.630D-03 0.854D-02
 Coeff:     -0.358D+00 0.135D+01
 Gap=     0.414 Goal=   None    Shift=    0.000
 RMSDP=5.29D-08 MaxDP=4.78D-07 DE=-1.34D-11 OVMax= 8.74D-07

 Cycle   9  Pass 1  IDiag  1:
 E= -76.1536666746954     Delta-E=       -0.000000000001 Rises=F Damp=F
 DIIS: error= 1.84D-08 at cycle   9 NSaved=   9.
 NSaved= 9 IEnMin= 9 EnMin= -76.1536666746954     IErMin= 9 ErrMin= 1.84D-08
 ErrMax= 1.84D-08  0.00D+00 EMaxC= 1.00D-01 BMatC= 3.71D-15 BMatP= 1.95D-13
 IDIUse=1 WtCom= 1.00D+00 WtEn= 0.00D+00
 Coeff-Com:  0.256D-06-0.558D-06 0.681D-05 0.270D-04-0.457D-03 0.112D-02
 Coeff-Com:  0.532D-01-0.298D+00 0.124D+01
 Coeff:      0.256D-06-0.558D-06 0.681D-05 0.270D-04-0.457D-03 0.112D-02
 Coeff:      0.532D-01-0.298D+00 0.124D+01
 Gap=     0.414 Goal=   None    Shift=    0.000
 RMSDP=6.02D-09 MaxDP=3.85D-08 DE=-9.52D-13 OVMax= 9.63D-08

 Error on total polarization charges =  0.00160
 SCF Done:  E(RB2PLYP) =  -76.1536666747     A.U. after    9 cycles
            NFock=  9  Conv=0.60D-08     -V/T= 2.0113
 KE= 7.530117436581D+01 PE=-1.949942169045D+02 EE= 3.621284533030D+01
 Leave Link  502 at Tue Jan  9 18:47:52 2018, MaxMem=  4194304000 cpu:         6.8
 (Enter /home/chemsoft/gaussian/g09e01/g09/l508.exe)
 QCSCF skips out because SCF is already converged.
 Leave Link  508 at Tue Jan  9 18:47:53 2018, MaxMem=  4194304000 cpu:         0.0
 (Enter /home/chemsoft/gaussian/g09e01/g09/l801.exe)
 DoSCS=T DFT=T ScalE2(SS,OS)=  0.270000  0.270000
 ExpMin= 1.22D-01 ExpMax= 2.27D+03 ExpMxC= 3.41D+02 IAcc=3 IRadAn=         5 AccDes= 0.00D+00
 HarFok:  IExCor=  205 AccDes= 0.00D+00 IRadAn=         5 IDoV=-2 UseB2=F ITyADJ=14
 ICtDFT= 12500011 ScaDFX=  1.000000  1.000000  1.000000  1.000000
 Largest valence mixing into a core orbital is  4.52D-05
 Largest core mixing into a valence orbital is  1.24D-05
 Range of M.O.s used for correlation:     2    24
 NBasis=    24 NAE=     5 NBE=     5 NFC=     1 NFV=     0
 NROrb=     23 NOA=     4 NOB=     4 NVA=    19 NVB=    19
 Leave Link  801 at Tue Jan  9 18:47:53 2018, MaxMem=  4194304000 cpu:         1.3
 (Enter /home/chemsoft/gaussian/g09e01/g09/l906.exe)
 DoSCS=T DFT=T ScalE2(SS,OS)=  0.270000  0.270000
 Frozen-core derivative calculation, NFC=   1 NFV=   0.
 FulOut=F Deriv=T AODrv=T NAtomX=     3
   MMem=      665759  MDisk=           4 MDiskD=           4
  W3Min=        3000 MinDsk=       58575 NBas6D=          25
 NBas2D=         352    NTT=         325    LW2=     2040000
    MDV=  4194291518 MDiskM=     2329050 NBas2p=         252
 Fully direct method using O(ONN) memory.
 IMap=   1   2   3   4   5
 JobTyp=1 Pass  1:  I=   2 to   5 NPSUse=  8 ParTrn=T ParDer=T DoDerP=T.
 Spin components of T(2) and E(2):
     alpha-alpha T2 =       0.1146814235D-01 E2=     -0.8651840642D-02
     alpha-beta  T2 =       0.8140221807D-01 E2=     -0.5481073312D-01
     beta-beta   T2 =       0.1146814235D-01 E2=     -0.8651840642D-02
 The integrals were generated   1 times.
 E2(B2PLYP) =    -0.7211441441D-01 E(B2PLYP) =    -0.76225781089103D+02
 Leave Link  906 at Tue Jan  9 18:47:53 2018, MaxMem=  4194304000 cpu:         1.4
 (Enter /home/chemsoft/gaussian/g09e01/g09/l1002.exe)
 Minotr:  Closed shell wavefunction.
          Computing MP2/KS-MP2 derivatives.
          Using Z-Vector for PSCF gradient.
          Skipping F1 and S1 gradient terms here.
          IDoAtm=111
 NEqPCM:  Using equilibrium solvation (IEInf=0, Eps=   2.3741, EpsInf=   2.2383)
          Frozen-core window.
          Direct CPHF calculation.
          Differentiating once with respect to electric field.
                with respect to dipole field.
          Differentiating once with respect to nuclear coordinates.
          Using symmetry in CPHF.
          Requested convergence is 1.0D-10 RMS, and 1.0D-09 maximum.
          NewPWx=F KeepS1=T KeepF1=T KeepIn=T MapXYZ=F SortEE=F KeepMc=T.
          MDV=    4194303943 using IRadAn=       0.
 Using stored XC quadrature information.
 Keep R1 ints in memory in symmetry-blocked form, NReq=1917824.
 FoFCou: FMM=F IPFlag=           0 FMFlag=           0 FMFlg1=           0
         NFxFlg=           0 DoJE=F BraDBF=F KetDBF=F FulRan=T
         wScrn=  0.000000 ICntrl=     600 IOpCl=  0 I1Cent=           0 NGrid=           0
         NMat0=    1 NMatS0=    300 NMatT0=    0 NMatD0=    1 NMtDS0=    0 NMtDT0=    0
 Petite list used in FoFCou.
          Solving linear equations separately, MaxMat=       0.
          There are     1 degrees of freedom in the 1st order CPHF.  IDoFFX=0 NUNeed=     1.
 LinEq1:  Iter=  0 NonCon=     1 RMS=4.28D-03 Max=2.88D-02 NDo=     1
 AX will form     1 AO Fock derivatives at one time.
 LinEq1:  Iter=  1 NonCon=     1 RMS=5.91D-04 Max=4.81D-03 NDo=     1
 LinEq1:  Iter=  2 NonCon=     1 RMS=3.53D-04 Max=1.85D-03 NDo=     1
 LinEq1:  Iter=  3 NonCon=     1 RMS=7.44D-05 Max=3.76D-04 NDo=     1
 LinEq1:  Iter=  4 NonCon=     1 RMS=1.44D-05 Max=7.54D-05 NDo=     1
 LinEq1:  Iter=  5 NonCon=     1 RMS=1.62D-06 Max=7.50D-06 NDo=     1
 LinEq1:  Iter=  6 NonCon=     1 RMS=9.49D-08 Max=4.31D-07 NDo=     1
 LinEq1:  Iter=  7 NonCon=     1 RMS=5.43D-09 Max=1.75D-08 NDo=     1
 LinEq1:  Iter=  8 NonCon=     1 RMS=2.46D-10 Max=9.32D-10 NDo=     1
 LinEq1:  Iter=  9 NonCon=     0 RMS=1.16D-11 Max=4.66D-11 NDo=     1
 Linear equations converged to 1.000D-10 1.000D-09 after     9 iterations.
 End of Minotr F.D. properties file   721 does not exist.
 End of Minotr F.D. properties file   722 does not exist.
 End of Minotr F.D. properties file   788 does not exist.
 Leave Link 1002 at Tue Jan  9 18:47:54 2018, MaxMem=  4194304000 cpu:         6.9
 (Enter /home/chemsoft/gaussian/g09e01/g09/l601.exe)
 Copying SCF densities to generalized density rwf, IOpCl= 0 IROHF=0.

 **********************************************************************

            Population analysis using the SCF density.

 **********************************************************************

 Orbital symmetries:
       Occupied  (A1) (A1) (B2) (A1) (B1)
       Virtual   (A1) (B2) (A1) (B2) (A1) (B1) (B2) (A1) (A2) (A1)
                 (B1) (B2) (B2) (A1) (B1) (A2) (A1) (A1) (B2)
 The electronic state is 1-A1.
 Alpha  occ. eigenvalues --  -19.74399  -1.03679  -0.51029  -0.41754  -0.36655
 Alpha virt. eigenvalues --    0.04724   0.12236   0.55168   0.55978   1.01605
 Alpha virt. eigenvalues --    1.01751   1.13321   1.19603   1.42958   1.60001
 Alpha virt. eigenvalues --    1.64732   1.68486   1.91252   2.02673   2.91452
 Alpha virt. eigenvalues --    2.96281   3.01073   3.43770   3.68801
     Molecular Orbital Coefficients:
                           1         2         3         4         5
                        (A1)--O   (A1)--O   (B2)--O   (A1)--O   (B1)--O
     Eigenvalues --   -19.74399  -1.03679  -0.51029  -0.41754  -0.36655
   1 1   O  1S          0.98994   0.28915   0.00000   0.08522   0.00000
   2        2S         -0.03463   0.58610   0.00000   0.17089   0.00000
   3        3S          0.01465   0.38750   0.00000   0.26535   0.00000
   4        4PX         0.00000   0.00000   0.00000   0.00000   0.64303
   5        4PY         0.00000   0.00000   0.47623   0.00000   0.00000
   6        4PZ         0.00162  -0.06234   0.00000   0.53338   0.00000
   7        5PX         0.00000   0.00000   0.00000   0.00000   0.49879
   8        5PY         0.00000   0.00000   0.26874   0.00000   0.00000
   9        5PZ        -0.00176  -0.01942   0.00000   0.38049   0.00000
  10        6D 0        0.00005   0.00145   0.00000  -0.01394   0.00000
  11        6D+1        0.00000   0.00000   0.00000   0.00000  -0.01452
  12        6D-1        0.00000   0.00000  -0.01922   0.00000   0.00000
  13        6D+2        0.00001  -0.00522   0.00000   0.00361   0.00000
  14        6D-2        0.00000   0.00000   0.00000   0.00000   0.00000
  15 2   H  1S         -0.00049   0.12152   0.28762  -0.20194   0.00000
  16        2S         -0.00207   0.01370   0.13342  -0.10408   0.00000
  17        3PX         0.00000   0.00000   0.00000   0.00000   0.02086
  18        3PY        -0.00048  -0.01909  -0.01931   0.02040   0.00000
  19        3PZ         0.00051   0.01114   0.02193   0.00473   0.00000
  20 3   H  1S         -0.00049   0.12152  -0.28762  -0.20194   0.00000
  21        2S         -0.00207   0.01370  -0.13342  -0.10408   0.00000
  22        3PX         0.00000   0.00000   0.00000   0.00000   0.02086
  23        3PY         0.00048   0.01909  -0.01931  -0.02040   0.00000
  24        3PZ         0.00051   0.01114  -0.02193   0.00473   0.00000
                           6         7         8         9        10
                        (A1)--V   (B2)--V   (A1)--V   (B2)--V   (A1)--V
     Eigenvalues --     0.04724   0.12236   0.55168   0.55978   1.01605
   1 1   O  1S          0.09625   0.00000  -0.06994   0.00000  -0.16104
   2        2S          0.15775   0.00000  -0.29443   0.00000  -0.77047
   3        3S          0.71593   0.00000   0.49925   0.00000   0.66165
   4        4PX         0.00000   0.00000   0.00000   0.00000   0.00000
   5        4PY         0.00000  -0.40856   0.00000   0.27650   0.00000
   6        4PZ        -0.30486   0.00000   0.27494   0.00000  -0.78774
   7        5PX         0.00000   0.00000   0.00000   0.00000   0.00000
   8        5PY         0.00000  -0.59645   0.00000   0.08277   0.00000
   9        5PZ        -0.39510   0.00000   0.01280   0.00000   0.89089
  10        6D 0        0.00773   0.00000  -0.00864   0.00000  -0.01638
  11        6D+1        0.00000   0.00000   0.00000   0.00000   0.00000
  12        6D-1        0.00000  -0.00037   0.00000   0.06846   0.00000
  13        6D+2        0.00300   0.00000  -0.05732   0.00000  -0.01791
  14        6D-2        0.00000   0.00000   0.00000   0.00000   0.00000
  15 2   H  1S         -0.18404   0.16642   0.88880  -0.92411   0.13608
  16        2S         -0.69018   0.91837  -0.77512   0.99802  -0.05780
  17        3PX         0.00000   0.00000   0.00000   0.00000   0.00000
  18        3PY        -0.00769   0.00513   0.09571  -0.00741   0.00259
  19        3PZ        -0.00279  -0.01167  -0.00808   0.06481   0.15919
  20 3   H  1S         -0.18404  -0.16642   0.88880   0.92411   0.13608
  21        2S         -0.69018  -0.91837  -0.77512  -0.99802  -0.05780
  22        3PX         0.00000   0.00000   0.00000   0.00000   0.00000
  23        3PY         0.00769   0.00513  -0.09571  -0.00741  -0.00259
  24        3PZ        -0.00279   0.01167  -0.00808  -0.06481   0.15919
                          11        12        13        14        15
                        (B1)--V   (B2)--V   (A1)--V   (A2)--V   (A1)--V
     Eigenvalues --     1.01751   1.13321   1.19603   1.42958   1.60001
   1 1   O  1S          0.00000   0.00000  -0.26298   0.00000   0.09284
   2        2S          0.00000   0.00000  -1.58995   0.00000   0.57134
   3        3S          0.00000   0.00000   2.24564   0.00000  -0.76914
   4        4PX        -0.93658   0.00000   0.00000   0.00000   0.00000
   5        4PY         0.00000  -0.83721   0.00000   0.00000   0.00000
   6        4PZ         0.00000   0.00000   0.30591   0.00000  -0.41730
   7        5PX         0.95125   0.00000   0.00000   0.00000   0.00000
   8        5PY         0.00000   1.47954   0.00000   0.00000   0.00000
   9        5PZ         0.00000   0.00000  -0.63662   0.00000   0.86957
  10        6D 0        0.00000   0.00000   0.04910   0.00000   0.19794
  11        6D+1       -0.00864   0.00000   0.00000   0.00000   0.00000
  12        6D-1        0.00000   0.05329   0.00000   0.00000   0.00000
  13        6D+2        0.00000   0.00000   0.07287   0.00000   0.03166
  14        6D-2        0.00000   0.00000   0.00000   0.17515   0.00000
  15 2   H  1S          0.00000  -0.26507  -0.34884   0.00000   0.37508
  16        2S          0.00000  -0.47570  -0.38493   0.00000   0.03659
  17        3PX         0.12358   0.00000   0.00000   0.67514   0.00000
  18        3PY         0.00000   0.28382  -0.04048   0.00000  -0.27554
  19        3PZ         0.00000   0.01136  -0.28025   0.00000  -0.54427
  20 3   H  1S          0.00000   0.26507  -0.34884   0.00000   0.37508
  21        2S          0.00000   0.47570  -0.38493   0.00000   0.03659
  22        3PX         0.12358   0.00000   0.00000  -0.67514   0.00000
  23        3PY         0.00000   0.28382   0.04048   0.00000   0.27554
  24        3PZ         0.00000  -0.01136  -0.28025   0.00000  -0.54427
                          16        17        18        19        20
                        (B1)--V   (B2)--V   (B2)--V   (A1)--V   (B1)--V
     Eigenvalues --     1.64732   1.68486   1.91252   2.02673   2.91452
   1 1   O  1S          0.00000   0.00000   0.00000   0.04447   0.00000
   2        2S          0.00000   0.00000   0.00000  -0.14362   0.00000
   3        3S          0.00000   0.00000   0.00000   1.13517   0.00000
   4        4PX         0.23077   0.00000   0.00000   0.00000   0.05594
   5        4PY         0.00000  -0.36650  -0.37726   0.00000   0.00000
   6        4PZ         0.00000   0.00000   0.00000  -0.20613   0.00000
   7        5PX        -0.58760   0.00000   0.00000   0.00000  -0.14876
   8        5PY         0.00000   0.77259  -0.40985   0.00000   0.00000
   9        5PZ         0.00000   0.00000   0.00000  -0.52359   0.00000
  10        6D 0        0.00000   0.00000   0.00000  -0.11555   0.00000
  11        6D+1       -0.17457   0.00000   0.00000   0.00000   0.99467
  12        6D-1        0.00000  -0.00462  -0.19825   0.00000   0.00000
  13        6D+2        0.00000   0.00000   0.00000   0.26184   0.00000
  14        6D-2        0.00000   0.00000   0.00000   0.00000   0.00000
  15 2   H  1S          0.00000  -0.28920   0.05431  -0.28241   0.00000
  16        2S          0.00000  -0.01194   0.35521  -0.28828   0.00000
  17        3PX         0.71535   0.00000   0.00000   0.00000   0.23585
  18        3PY         0.00000  -0.45840  -0.49730   0.76832   0.00000
  19        3PZ         0.00000  -0.52826   0.58290  -0.29844   0.00000
  20 3   H  1S          0.00000   0.28920  -0.05431  -0.28241   0.00000
  21        2S          0.00000   0.01194  -0.35521  -0.28828   0.00000
  22        3PX         0.71535   0.00000   0.00000   0.00000   0.23585
  23        3PY         0.00000  -0.45840  -0.49730  -0.76832   0.00000
  24        3PZ         0.00000   0.52826  -0.58290  -0.29844   0.00000
                          21        22        23        24
                        (A2)--V   (A1)--V   (A1)--V   (B2)--V
     Eigenvalues --     2.96281   3.01073   3.43770   3.68801
   1 1   O  1S          0.00000  -0.00535  -0.00337   0.00000
   2        2S          0.00000  -0.08894  -0.36696   0.00000
   3        3S          0.00000   0.23955   1.26429   0.00000
   4        4PX         0.00000   0.00000   0.00000   0.00000
   5        4PY         0.00000   0.00000   0.00000  -0.05778
   6        4PZ         0.00000   0.06468  -0.05359   0.00000
   7        5PX         0.00000   0.00000   0.00000   0.00000
   8        5PY         0.00000   0.00000   0.00000  -0.84802
   9        5PZ         0.00000  -0.27983  -0.59904   0.00000
  10        6D 0        0.00000   0.99200   0.03294   0.00000
  11        6D+1        0.00000   0.00000   0.00000   0.00000
  12        6D-1        0.00000   0.00000   0.00000   1.15412
  13        6D+2        0.00000   0.06000  -1.06477   0.00000
  14        6D-2        1.00230   0.00000   0.00000   0.00000
  15 2   H  1S          0.00000  -0.11523  -0.52172   0.49372
  16        2S          0.00000  -0.03041  -0.19210   0.21942
  17        3PX        -0.25310   0.00000   0.00000   0.00000
  18        3PY         0.00000   0.24533   0.49595  -0.48050
  19        3PZ         0.00000   0.21201  -0.35020   0.37883
  20 3   H  1S          0.00000  -0.11523  -0.52172  -0.49372
  21        2S          0.00000  -0.03041  -0.19210  -0.21942
  22        3PX         0.25310   0.00000   0.00000   0.00000
  23        3PY         0.00000  -0.24533  -0.49595  -0.48050
  24        3PZ         0.00000   0.21201  -0.35020  -0.37883
     Density Matrix:
                           1         2         3         4         5
   1 1   O  1S          2.14170
   2        2S          0.29950   0.74782
   3        3S          0.29832   0.54390   0.44156
   4        4PX         0.00000   0.00000   0.00000   0.82699
   5        4PY         0.00000   0.00000   0.00000  -0.00000   0.45359
   6        4PZ         0.05807   0.10911   0.23480   0.00000   0.00000
   7        5PX         0.00000   0.00000   0.00000   0.64148  -0.00000
   8        5PY         0.00000   0.00000   0.00000  -0.00000   0.25596
   9        5PZ         0.05013   0.10740   0.18683   0.00000   0.00000
  10        6D 0       -0.00144  -0.00307  -0.00628  -0.00000   0.00000
  11        6D+1       -0.00000  -0.00000  -0.00000  -0.01867   0.00000
  12        6D-1       -0.00000  -0.00000  -0.00000   0.00000  -0.01831
  13        6D+2       -0.00238  -0.00489  -0.00213   0.00000   0.00000
  14        6D-2       -0.00000  -0.00000  -0.00000  -0.00000  -0.00000
  15 2   H  1S          0.03488   0.07346  -0.01301  -0.00000   0.27395
  16        2S         -0.01392  -0.01937  -0.04468  -0.00000   0.12708
  17        3PX         0.00000   0.00000   0.00000   0.02683   0.00000
  18        3PY        -0.00850  -0.01537  -0.00398   0.00000  -0.01839
  19        3PZ         0.00826   0.01464   0.01116  -0.00000   0.02089
  20 3   H  1S          0.03488   0.07346  -0.01301   0.00000  -0.27395
  21        2S         -0.01392  -0.01937  -0.04468   0.00000  -0.12708
  22        3PX        -0.00000  -0.00000  -0.00000   0.02683   0.00000
  23        3PY         0.00850   0.01537   0.00398   0.00000  -0.01839
  24        3PZ         0.00826   0.01464   0.01116   0.00000  -0.02089
                           6         7         8         9        10
   6        4PZ         0.57676
   7        5PX         0.00000   0.49759
   8        5PY         0.00000  -0.00000   0.14444
   9        5PZ         0.40831   0.00000   0.00000   0.29031
  10        6D 0       -0.01505  -0.00000   0.00000  -0.01067   0.00039
  11        6D+1       -0.00000  -0.01448   0.00000  -0.00000   0.00000
  12        6D-1       -0.00000   0.00000  -0.01033  -0.00000  -0.00000
  13        6D+2        0.00451   0.00000   0.00000   0.00295  -0.00012
  14        6D-2       -0.00000  -0.00000  -0.00000  -0.00000   0.00000
  15 2   H  1S         -0.23057  -0.00000   0.15459  -0.15839   0.00598
  16        2S         -0.11274  -0.00000   0.07171  -0.07973   0.00294
  17        3PX        -0.00000   0.02081   0.00000  -0.00000   0.00000
  18        3PY         0.02413   0.00000  -0.01038   0.01626  -0.00062
  19        3PZ         0.00366  -0.00000   0.01179   0.00316  -0.00010
  20 3   H  1S         -0.23057   0.00000  -0.15459  -0.15839   0.00598
  21        2S         -0.11274   0.00000  -0.07171  -0.07973   0.00294
  22        3PX         0.00000   0.02081   0.00000   0.00000  -0.00000
  23        3PY        -0.02413   0.00000  -0.01038  -0.01626   0.00062
  24        3PZ         0.00366   0.00000  -0.01179   0.00316  -0.00010
                          11        12        13        14        15
  11        6D+1        0.00042
  12        6D-1       -0.00000   0.00074
  13        6D+2        0.00000  -0.00000   0.00008
  14        6D-2        0.00000   0.00000  -0.00000   0.00000
  15 2   H  1S          0.00000  -0.01106  -0.00273   0.00000   0.27654
  16        2S          0.00000  -0.00513  -0.00090   0.00000   0.12212
  17        3PX        -0.00061  -0.00000  -0.00000  -0.00000   0.00000
  18        3PY         0.00000   0.00074   0.00035  -0.00000  -0.02398
  19        3PZ         0.00000  -0.00084  -0.00008  -0.00000   0.01341
  20 3   H  1S         -0.00000   0.01106  -0.00273   0.00000  -0.05436
  21        2S         -0.00000   0.00513  -0.00090   0.00000  -0.03138
  22        3PX        -0.00061  -0.00000   0.00000  -0.00000  -0.00000
  23        3PY         0.00000   0.00074  -0.00035   0.00000   0.00177
  24        3PZ        -0.00000   0.00084  -0.00008  -0.00000  -0.01182
                          16        17        18        19        20
  16        2S          0.05765
  17        3PX         0.00000   0.00087
  18        3PY        -0.00992  -0.00000   0.00231
  19        3PZ         0.00517   0.00000  -0.00108   0.00126
  20 3   H  1S         -0.03138   0.00000  -0.00177  -0.01182   0.27654
  21        2S         -0.01355  -0.00000   0.00039  -0.00653   0.12212
  22        3PX         0.00000   0.00087   0.00000   0.00000  -0.00000
  23        3PY        -0.00039   0.00000  -0.00082  -0.00061   0.02398
  24        3PZ        -0.00653  -0.00000   0.00061  -0.00067   0.01341
                          21        22        23        24
  21        2S          0.05765
  22        3PX        -0.00000   0.00087
  23        3PY         0.00992  -0.00000   0.00231
  24        3PZ         0.00517  -0.00000   0.00108   0.00126
    Full Mulliken population analysis:
                           1         2         3         4         5
   1 1   O  1S          2.14170
   2        2S         -0.10303   0.74782
   3        3S         -0.04710   0.42910   0.44156
   4        4PX         0.00000   0.00000   0.00000   0.82699
   5        4PY         0.00000   0.00000   0.00000   0.00000   0.45359
   6        4PZ         0.00000   0.00000   0.00000   0.00000   0.00000
   7        5PX         0.00000   0.00000   0.00000   0.32211   0.00000
   8        5PY         0.00000   0.00000   0.00000   0.00000   0.12853
   9        5PZ         0.00000   0.00000   0.00000   0.00000   0.00000
  10        6D 0        0.00000   0.00000  -0.00000   0.00000   0.00000
  11        6D+1        0.00000  -0.00000  -0.00000   0.00000   0.00000
  12        6D-1       -0.00000   0.00000   0.00000   0.00000   0.00000
  13        6D+2       -0.00000   0.00000   0.00000   0.00000   0.00000
  14        6D-2       -0.00000   0.00000   0.00000   0.00000   0.00000
  15 2   H  1S         -0.00075   0.01359  -0.00485   0.00000   0.03957
  16        2S          0.00070  -0.00622  -0.02644   0.00000   0.01118
  17        3PX        -0.00000   0.00000   0.00000   0.00204   0.00000
  18        3PY        -0.00020   0.00322   0.00093   0.00000   0.00307
  19        3PZ        -0.00014   0.00219   0.00186   0.00000   0.00362
  20 3   H  1S         -0.00075   0.01359  -0.00485   0.00000   0.03957
  21        2S          0.00070  -0.00622  -0.02644   0.00000   0.01118
  22        3PX         0.00000   0.00000   0.00000   0.00204   0.00000
  23        3PY        -0.00020   0.00322   0.00093   0.00000   0.00307
  24        3PZ        -0.00014   0.00219   0.00186   0.00000   0.00362
                           6         7         8         9        10
   6        4PZ         0.57676
   7        5PX         0.00000   0.49759
   8        5PY         0.00000   0.00000   0.14444
   9        5PZ         0.20503   0.00000   0.00000   0.29031
  10        6D 0        0.00000   0.00000   0.00000   0.00000   0.00039
  11        6D+1        0.00000   0.00000   0.00000   0.00000   0.00000
  12        6D-1        0.00000   0.00000   0.00000   0.00000   0.00000
  13        6D+2        0.00000   0.00000   0.00000   0.00000  -0.00000
  14        6D-2        0.00000   0.00000   0.00000   0.00000   0.00000
  15 2   H  1S          0.02376   0.00000   0.06996   0.05113   0.00001
  16        2S          0.00707   0.00000   0.02441   0.01936   0.00000
  17        3PX         0.00000   0.00516   0.00000   0.00000   0.00000
  18        3PY         0.00418   0.00000   0.00103   0.00403   0.00005
  19        3PZ        -0.00017   0.00000   0.00292   0.00023   0.00001
  20 3   H  1S          0.02376   0.00000   0.06996   0.05113   0.00001
  21        2S          0.00707   0.00000   0.02441   0.01936   0.00000
  22        3PX         0.00000   0.00516   0.00000   0.00000   0.00000
  23        3PY         0.00418   0.00000   0.00103   0.00403   0.00005
  24        3PZ        -0.00017   0.00000   0.00292   0.00023   0.00001
                          11        12        13        14        15
  11        6D+1        0.00042
  12        6D-1        0.00000   0.00074
  13        6D+2        0.00000   0.00000   0.00008
  14        6D-2        0.00000   0.00000   0.00000   0.00000
  15 2   H  1S          0.00000   0.00146   0.00025  -0.00000   0.27654
  16        2S          0.00000   0.00013   0.00002  -0.00000   0.08362
  17        3PX         0.00006   0.00000   0.00000  -0.00000   0.00000
  18        3PY        -0.00000   0.00016   0.00003  -0.00000   0.00000
  19        3PZ         0.00000   0.00007   0.00001   0.00000   0.00000
  20 3   H  1S         -0.00000   0.00146   0.00025  -0.00000  -0.00184
  21        2S         -0.00000   0.00013   0.00002  -0.00000  -0.00568
  22        3PX         0.00006   0.00000  -0.00000   0.00000   0.00000
  23        3PY         0.00000   0.00016   0.00003   0.00000   0.00007
  24        3PZ         0.00000   0.00007   0.00001   0.00000  -0.00000
                          16        17        18        19        20
  16        2S          0.05765
  17        3PX         0.00000   0.00087
  18        3PY         0.00000   0.00000   0.00231
  19        3PZ         0.00000   0.00000   0.00000   0.00126
  20 3   H  1S         -0.00568   0.00000   0.00007  -0.00000   0.27654
  21        2S         -0.00590  -0.00000  -0.00004  -0.00000   0.08362
  22        3PX         0.00000   0.00000   0.00000  -0.00000   0.00000
  23        3PY        -0.00004   0.00000   0.00003  -0.00000   0.00000
  24        3PZ        -0.00000   0.00000   0.00000  -0.00000   0.00000
                          21        22        23        24
  21        2S          0.05765
  22        3PX         0.00000   0.00087
  23        3PY         0.00000   0.00000   0.00231
  24        3PZ         0.00000   0.00000   0.00000   0.00126
     Gross orbital populations:
                           1
   1 1   O  1S          1.99079
   2        2S          1.09945
   3        3S          0.76657
   4        4PX         1.15317
   5        4PY         0.69698
   6        4PZ         0.85145
   7        5PX         0.83003
   8        5PY         0.46960
   9        5PZ         0.64481
  10        6D 0        0.00052
  11        6D+1        0.00053
  12        6D-1        0.00437
  13        6D+2        0.00070
  14        6D-2        0.00000
  15 2   H  1S          0.54683
  16        2S          0.15984
  17        3PX         0.00813
  18        3PY         0.01886
  19        3PZ         0.01185
  20 3   H  1S          0.54683
  21        2S          0.15984
  22        3PX         0.00813
  23        3PY         0.01886
  24        3PZ         0.01185
          Condensed to atoms (all electrons):
               1          2          3
     1  O    7.991672   0.258654   0.258654
     2  H    0.258654   0.505875  -0.019019
     3  H    0.258654  -0.019019   0.505875
 Mulliken charges:
               1
     1  O   -0.508980
     2  H    0.254490
     3  H    0.254490
 Sum of Mulliken charges =  -0.00000
 Mulliken charges with hydrogens summed into heavy atoms:
               1
     1  O   -0.000000
 Electronic spatial extent (au):  <R**2>=             22.2110
 Charge=              0.0000 electrons
 Dipole moment (field-independent basis, Debye):
    X=             -0.0000    Y=             -0.0000    Z=             -2.2106  Tot=              2.2106
 Quadrupole moment (field-independent basis, Debye-Ang):
   XX=             -7.5162   YY=             -3.3640   ZZ=             -6.0941
   XY=              0.0000   XZ=              0.0000   YZ=              0.0000
 Traceless Quadrupole moment (field-independent basis, Debye-Ang):
   XX=             -1.8581   YY=              2.2941   ZZ=             -0.4360
   XY=              0.0000   XZ=              0.0000   YZ=              0.0000
 Octapole moment (field-independent basis, Debye-Ang**2):
  XXX=              0.0000  YYY=             -0.0000  ZZZ=             -0.9176  XYY=             -0.0000
  XXY=              0.0000  XXZ=             -0.1305  XZZ=              0.0000  YZZ=             -0.0000
  YYZ=             -2.1014  XYZ=             -0.0000
 Hexadecapole moment (field-independent basis, Debye-Ang**3):
 XXXX=             -5.5181 YYYY=             -7.5645 ZZZZ=             -7.6138 XXXY=             -0.0000
 XXXZ=             -0.0000 YYYX=              0.0000 YYYZ=              0.0000 ZZZX=             -0.0000
 ZZZY=              0.0000 XXYY=             -2.8997 XXZZ=             -2.2834 YYZZ=             -1.8832
 XXYZ=             -0.0000 YYXZ=              0.0000 ZZXY=              0.0000
 N-N= 7.326530533738D+00 E-N=-1.949942170647D+02  KE= 7.530117436581D+01
 Symmetry A1   KE= 6.754827194827D+01
 Symmetry A2   KE= 1.894056205418D-35
 Symmetry B1   KE= 4.664724547331D+00
 Symmetry B2   KE= 3.088177870208D+00

 Atomic contributions to Alpha molecular orbitals:
 Alpha occ 1 OE=-19.744 is O1-s=1.00
 Alpha occ 2 OE=-1.037 is O1-s=0.87
 Alpha occ 3 OE=-0.510 is O1-p=0.58 H2-s=0.20 H3-s=0.20
 Alpha occ 4 OE=-0.418 is O1-p=0.74
 Alpha occ 5 OE=-0.367 is O1-p=0.99
 Alpha vir 6 OE=0.047 is H2-s=0.45 H3-s=0.45 O1-p=0.16
 Alpha vir 7 OE=0.122 is H2-s=0.38 H3-s=0.38 O1-p=0.23
 Alpha vir 8 OE=0.552 is H2-s=0.44 H3-s=0.44
 Alpha vir 9 OE=0.560 is H2-s=0.44 H3-s=0.44
 Alpha vir 10 OE=1.016 is O1-p=0.71 O1-s=0.21
 Alpha vir 11 OE=1.018 is O1-p=0.93
 Alpha vir 12 OE=1.133 is O1-p=0.95
 Alpha vir 13 OE=1.196 is O1-s=0.82 O1-p=0.12
 Alpha vir 14 OE=1.430 is H3-p=0.47 H2-p=0.47
 Alpha vir 15 OE=1.600 is H2-p=0.32 H3-p=0.32 O1-p=0.21
 Alpha vir 16 OE=1.647 is H3-p=0.43 H2-p=0.43
 Alpha vir 17 OE=1.685 is H2-p=0.42 H3-p=0.42 O1-p=0.15
 Alpha vir 18 OE=1.913 is H2-p=0.44 H3-p=0.44 O1-d=0.11
 Alpha vir 19 OE=2.027 is H2-p=0.42 H3-p=0.42 O1-d=0.16
 Alpha vir 20 OE=2.915 is O1-d=0.95
 Alpha vir 21 OE=2.963 is O1-d=0.94
 Alpha vir 22 OE=3.011 is O1-d=0.91
 Alpha vir 23 OE=3.438 is O1-d=0.82
 Alpha vir 24 OE=3.688 is O1-d=0.86
 
 Orbital energies and kinetic energies (alpha):
                                 1                 2
   1         (A1)--O         -19.743994         28.819512
   2         (A1)--O          -1.036789          2.933431
   3         (B2)--O          -0.510286          1.544089
   4         (A1)--O          -0.417540          2.021193
   5         (B1)--O          -0.366551          2.332362
   6         (A1)--V           0.047244          1.143463
   7         (B2)--V           0.122360          1.249689
   8         (A1)--V           0.551676          1.805813
   9         (B2)--V           0.559776          1.660135
  10         (A1)--V           1.016047          3.626235
  11         (B1)--V           1.017515          3.554498
  12         (B2)--V           1.133211          3.103770
  13         (A1)--V           1.196026          3.729695
  14         (A2)--V           1.429582          2.022318
  15         (A1)--V           1.600014          2.739474
  16         (B1)--V           1.647322          2.282691
  17         (B2)--V           1.684860          2.464604
  18         (B2)--V           1.912519          3.007728
  19         (A1)--V           2.026728          2.989550
  20         (B1)--V           2.914523          4.289453
  21         (A2)--V           2.962810          4.345973
  22         (A1)--V           3.010726          4.387206
  23         (A1)--V           3.437702          4.848029
  24         (B2)--V           3.688011          5.175289
 Total kinetic energy from orbitals= 7.530117436581D+01
 No NMR shielding tensors so no spin-rotation constants.
 Leave Link  601 at Tue Jan  9 18:47:55 2018, MaxMem=  4194304000 cpu:         2.5
 (Enter /home/chemsoft/gaussian/g09e01/g09/l612.exe)
 Running external command "gaunbo6 R"
         input file       "/scr/martin/g09job979/Gau-26431.EIn"
         output file      "/scr/martin/g09job979/Gau-26431.EOu"
         message file     "/scr/martin/g09job979/Gau-26431.EMs"
         fchk file        "/scr/martin/g09job979/Gau-26431.EFC"
         mat. el file     "/scr/martin/g09job979/Gau-26431.EUF"

 Writing Wrt12E file "/scr/martin/g09job979/Gau-26431.EUF"
 Gaussian matrix elements                                         Version   1 NLab= 7 Len12L=8 Len4L=8
 Write GAUSSIAN SCALARS               from file   501 offset           0 to matrix element file.
 Write OVERLAP                        from file   514 offset           0 to matrix element file.
 Write CORE HAMILTONIAN ALPHA         from file   515 offset           0 to matrix element file.
 Write CORE HAMILTONIAN BETA          from file   515 offset         300 to matrix element file.
 Write KINETIC ENERGY                 from file   516 offset           0 to matrix element file.
 Write ORTHOGONAL BASIS               from file   685 offset           0 to matrix element file.
 Write DIPOLE INTEGRALS               from file   518 offset           0 to matrix element file.
 Array DIP VEL INTEGRALS               on  file    572 does not exist.
 Array R X DEL INTEGRALS               on  file    572 does not exist.
 Write ALPHA ORBITAL ENERGIES         from file     0 offset           0 to matrix element file.
 Write ALPHA MO COEFFICIENTS          from file 10524 offset           0 to matrix element file.
 Write ALPHA DENSITY MATRIX           from file     0 offset           0 to matrix element file.
 Write ALPHA SCF DENSITY MATRIX       from file 10528 offset           0 to matrix element file.
 Write ALPHA FOCK MATRIX              from file 10536 offset           0 to matrix element file.
 Write ALPHA MP2 DENSITY              from file     0 offset           0 to matrix element file.
 No 2e integrals to process.
 Perform NBO analysis...

 *********************************** NBO 6.0 ***********************************
             N A T U R A L   A T O M I C   O R B I T A L   A N D
          N A T U R A L   B O N D   O R B I T A L   A N A L Y S I S
 ***************************** development version *****************************
  (c) Copyright 1996-2016 Board of Regents of the University of Wisconsin System
      on behalf of the Theoretical Chemistry Institute.  All rights reserved.

          Cite this program as:

          NBO 6.0.  E. D. Glendening, J. K. Badenhoop, A. E. Reed,
          J. E. Carpenter, J. A. Bohmann, C. M. Morales, C. R. Landis,
          and F. Weinhold (Theoretical Chemistry Institute, University
          of Wisconsin, Madison, WI, 2013); http://nbo6.chem.wisc.edu/

 Filename set to /scr/martin/g09job979/Gau-26431

 Job title:  Water B2PLYP/def2-SVP


 NATURAL POPULATIONS:  Natural atomic orbital occupancies

  NAO Atom No lang   Type(AO)    Occupancy
 ------------------------------------------
   1    O  1  s      Cor( 1s)     1.99999
   2    O  1  s      Val( 2s)     1.86376
   3    O  1  s      Ryd( 3s)     0.00110
   4    O  1  px     Val( 2p)     1.99787
   5    O  1  px     Ryd( 3p)     0.00001
   6    O  1  py     Val( 2p)     1.42520
   7    O  1  py     Ryd( 3p)     0.00028
   8    O  1  pz     Val( 2p)     1.63446
   9    O  1  pz     Ryd( 3p)     0.00020
  10    O  1  dxy    Ryd( 3d)     0.00000
  11    O  1  dxz    Ryd( 3d)     0.00063
  12    O  1  dyz    Ryd( 3d)     0.00217
  13    O  1  dx2y2  Ryd( 3d)     0.00055
  14    O  1  dz2    Ryd( 3d)     0.00061

  15    H  2  s      Val( 1s)     0.53282
  16    H  2  s      Ryd( 2s)     0.00102
  17    H  2  px     Ryd( 2p)     0.00075
  18    H  2  py     Ryd( 2p)     0.00122
  19    H  2  pz     Ryd( 2p)     0.00078

  20    H  3  s      Val( 1s)     0.53282
  21    H  3  s      Ryd( 2s)     0.00102
  22    H  3  px     Ryd( 2p)     0.00075
  23    H  3  py     Ryd( 2p)     0.00122
  24    H  3  pz     Ryd( 2p)     0.00078


 Summary of Natural Population Analysis:

                                     Natural Population
             Natural    ---------------------------------------------
  Atom No    Charge        Core      Valence    Rydberg      Total
 --------------------------------------------------------------------
    O  1   -0.92684      1.99999     6.92130    0.00555     8.92684
    H  2    0.46342      0.00000     0.53282    0.00376     0.53658
    H  3    0.46342      0.00000     0.53282    0.00376     0.53658
 ====================================================================
 * Total *  0.00000      1.99999     7.98693    0.01308    10.00000

                                 Natural Population
 ---------------------------------------------------------
   Core                       1.99999 ( 99.9995% of    2)
   Valence                    7.98693 ( 99.8366% of    8)
   Natural Minimal Basis      9.98692 ( 99.8692% of   10)
   Natural Rydberg Basis      0.01308 (  0.1308% of   10)
 ---------------------------------------------------------

    Atom No         Natural Electron Configuration
 ----------------------------------------------------------------------------
      O  1      [core]2s( 1.86)2p( 5.06)
      H  2            1s( 0.53)
      H  3            1s( 0.53)


 NATURAL BOND ORBITAL ANALYSIS:

                            Occupancies       Lewis Structure    Low   High
         Max    Occ     -------------------  -----------------   occ   occ
  Cycle  Ctr   Thresh    Lewis   non-Lewis     CR  BD  nC  LP    (L)   (NL)
 ============================================================================
    1     2     1.90     9.99369   0.00631      1   2   0   2     0      0
    2     2     1.50     9.25991   0.74009      1   1   0   3     0      2
    3     2     1.42     8.92684   1.07316      1   0   0   4     0      2
    4     2     1.90     9.99369   0.00631      1   2   0   2     0      0
 ----------------------------------------------------------------------------

 Structure accepted: No low occupancy Lewis orbitals

 -------------------------------------------------------
   Core                      1.99999 ( 99.999% of   2)
   Valence Lewis             7.99370 ( 99.921% of   8)
  ==================      =============================
   Total Lewis               9.99369 ( 99.937% of  10)
  -----------------------------------------------------
   Valence non-Lewis         0.00181 (  0.018% of  10)
   Rydberg non-Lewis         0.00450 (  0.045% of  10)
  ==================      =============================
   Total non-Lewis           0.00631 (  0.063% of  10)
 -------------------------------------------------------


     (Occupancy)   Bond orbital / Coefficients / Hybrids
 ------------------ Lewis ------------------------------------------------------
   1. (1.99999) CR ( 1) O  1            s(100.00%)
                                         1.0000  0.0000  0.0000  0.0000  0.0000
                                         0.0000  0.0000  0.0000  0.0000  0.0000
                                         0.0000  0.0000  0.0000  0.0000
   2. (1.99850) LP ( 1) O  1            s(  0.00%)p 1.00( 99.97%)d 0.00(  0.03%)
                                         0.0000  0.0000  0.0000  0.9998 -0.0018
                                         0.0000  0.0000  0.0000  0.0000  0.0000
                                        -0.0177  0.0000  0.0000  0.0000
   3. (1.99775) LP ( 2) O  1            s( 73.00%)p 0.37( 26.98%)d 0.00(  0.01%)
                                         0.0000  0.8543 -0.0110  0.0000  0.0000
                                         0.0000  0.0000  0.5195 -0.0018  0.0000
                                         0.0000  0.0000 -0.0055 -0.0102
   4. (1.99872) BD ( 1) O  1- H  2
               ( 73.30%)   0.8562* O  1 s( 13.52%)p 6.39( 86.37%)d 0.01(  0.11%)
                                         0.0000  0.3673  0.0169  0.0000  0.0000
                                         0.7065  0.0099 -0.6037  0.0080  0.0000
                                         0.0000 -0.0276 -0.0128  0.0116
               ( 26.70%)   0.5167* H  2 s( 99.72%)p 0.00(  0.28%)
                                         0.9986 -0.0011  0.0000 -0.0476  0.0235
   5. (1.99872) BD ( 1) O  1- H  3
               ( 73.30%)   0.8562* O  1 s( 13.52%)p 6.39( 86.37%)d 0.01(  0.11%)
                                         0.0000  0.3673  0.0169  0.0000  0.0000
                                        -0.7065 -0.0099 -0.6037  0.0080  0.0000
                                         0.0000  0.0276 -0.0128  0.0116
               ( 26.70%)   0.5167* H  3 s( 99.72%)p 0.00(  0.28%)
                                         0.9986 -0.0011  0.0000  0.0476  0.0235
 ---------------- non-Lewis ----------------------------------------------------
   6. (0.00090) BD*( 1) O  1- H  2
               ( 26.70%)   0.5167* O  1 s( 13.52%)p 6.39( 86.37%)d 0.01(  0.11%)
                                         0.0000 -0.3673 -0.0169  0.0000  0.0000
                                        -0.7065 -0.0099  0.6037 -0.0080  0.0000
                                         0.0000  0.0276  0.0128 -0.0116
               ( 73.30%)  -0.8562* H  2 s( 99.72%)p 0.00(  0.28%)
                                        -0.9986  0.0011  0.0000  0.0476 -0.0235
   7. (0.00090) BD*( 1) O  1- H  3
               ( 26.70%)   0.5167* O  1 s( 13.52%)p 6.39( 86.37%)d 0.01(  0.11%)
                                         0.0000 -0.3673 -0.0169  0.0000  0.0000
                                         0.7065  0.0099  0.6037 -0.0080  0.0000
                                         0.0000 -0.0276  0.0128 -0.0116
               ( 73.30%)  -0.8562* H  3 s( 99.72%)p 0.00(  0.28%)
                                        -0.9986  0.0011  0.0000 -0.0476 -0.0235
   8. (0.00000) RY ( 1) O  1            s(  0.01%)p 1.00( 94.48%)d 0.06(  5.51%)
   9. (0.00000) RY ( 2) O  1            s( 99.93%)p 0.00(  0.07%)d 0.00(  0.00%)
  10. (0.00000) RY ( 3) O  1            s(  0.00%)p 1.00(100.00%)d 0.00(  0.00%)
  11. (0.00000) RY ( 4) O  1            s(  0.00%)p 1.00(100.00%)d 0.00(  0.00%)
  12. (0.00000) RY ( 5) O  1            s(  0.00%)p 0.00(  0.00%)d 1.00(100.00%)
  13. (0.00000) RY ( 6) O  1            s(  0.00%)p 1.00(  0.03%)d99.99( 99.97%)
  14. (0.00000) RY ( 7) O  1            s(  0.00%)p 1.00(  0.15%)d99.99( 99.85%)
  15. (0.00000) RY ( 8) O  1            s(  0.02%)p99.99(  5.49%)d99.99( 94.50%)
  16. (0.00000) RY ( 9) O  1            s(  0.00%)p 1.00(  0.08%)d99.99( 99.92%)
  17. (0.00114) RY ( 1) H  2            s( 85.21%)p 0.17( 14.79%)
                                         0.0089  0.9231  0.0000 -0.0232 -0.3839
  18. (0.00075) RY ( 2) H  2            s(  0.00%)p 1.00(100.00%)
                                         0.0000  0.0000  1.0000  0.0000  0.0000
  19. (0.00036) RY ( 3) H  2            s( 13.93%)p 6.18( 86.07%)
                                        -0.0062  0.3732  0.0000  0.2958  0.8793
  20. (0.00000) RY ( 4) H  2            s(  1.14%)p86.53( 98.86%)
  21. (0.00114) RY ( 1) H  3            s( 85.21%)p 0.17( 14.79%)
                                         0.0089  0.9231  0.0000  0.0232 -0.3839
  22. (0.00075) RY ( 2) H  3            s(  0.00%)p 1.00(100.00%)
                                         0.0000  0.0000  1.0000  0.0000  0.0000
  23. (0.00036) RY ( 3) H  3            s( 13.93%)p 6.18( 86.07%)
                                        -0.0062  0.3732  0.0000 -0.2958  0.8793
  24. (0.00000) RY ( 4) H  3            s(  1.14%)p86.53( 98.86%)


 NHO DIRECTIONALITY AND BOND BENDING (deviation from line of nuclear centers at
                                      the position of maximum hybrid amplitude)

         [Thresholds for printing:  angular deviation  >  1.0 degree]
                                    p- or d-character  > 25.0%
                                    orbital occupancy  >  0.10e

                        Line of Centers        Hybrid 1             Hybrid 2
                        ---------------  -------------------  ------------------
           NBO            Theta   Phi    Theta   Phi    Dev   Theta   Phi    Dev
 ===============================================================================
   2. LP ( 1) O  1          --     --     90.5  180.0   --      --     --    --
   3. LP ( 2) O  1          --     --      0.0    0.0   --      --     --    --
   4. BD ( 1) O  1- H  2  125.5   90.0   129.9   90.0   4.4     --     --    --
   5. BD ( 1) O  1- H  3  125.5  270.0   129.9  270.0   4.4     --     --    --


 NATURAL BOND ORBITALS (Summary):

           NBO                 Occupancy
 ========================================
 Molecular unit  1  (H2O)
 ------ Lewis ---------------------------
    1. CR ( 1) O  1             1.99999
    2. LP ( 1) O  1             1.99850
    3. LP ( 2) O  1             1.99775
    4. BD ( 1) O  1- H  2       1.99872
    5. BD ( 1) O  1- H  3       1.99872
 ------ non-Lewis -----------------------
    6. BD*( 1) O  1- H  2       0.00090
    7. BD*( 1) O  1- H  3       0.00090
    8. RY ( 1) O  1             0.00000
    9. RY ( 2) O  1             0.00000
   10. RY ( 3) O  1             0.00000
   11. RY ( 4) O  1             0.00000
   12. RY ( 5) O  1             0.00000
   13. RY ( 6) O  1             0.00000
   14. RY ( 7) O  1             0.00000
   15. RY ( 8) O  1             0.00000
   16. RY ( 9) O  1             0.00000
   17. RY ( 1) H  2             0.00114
   18. RY ( 2) H  2             0.00075
   19. RY ( 3) H  2             0.00036
   20. RY ( 4) H  2             0.00000
   21. RY ( 1) H  3             0.00114
   22. RY ( 2) H  3             0.00075
   23. RY ( 3) H  3             0.00036
   24. RY ( 4) H  3             0.00000
          -------------------------------
                 Total Lewis    9.99369  ( 99.9369%)
           Valence non-Lewis    0.00181  (  0.0181%)
           Rydberg non-Lewis    0.00450  (  0.0450%)
          -------------------------------
               Total unit  1   10.00000  (100.0000%)
              Charge unit  1    0.00000

 $CHOOSE
   LONE 1 2 END
   BOND S 1 2 S 1 3 END
 $END

 NBO analysis completed in 0.03 CPU seconds (0 wall seconds)
 Maximum scratch memory used by NBO was 146826 words
 Maximum scratch memory used by G09NBO was 11155 words

 Read Unf file /scr/martin/g09job979/Gau-26431.EUF:
 Label Gaussian matrix elements                                         IVers= 1 NLab= 2 Version=ES64L-G09RevE.01
 Title Water B2PLYP/def2-SVP                                           
 NAtoms=     3 NBasis=    24 NBsUse=    24 ICharg=     0 Multip=     1 NE=    10 Len12L=8 Len4L=8
 Label GAUSSIAN SCALARS                                                 NI= 1 NR= 1 NTot=       1 LenBuf=    2000 N=    1000       1       1       1       1
 Label NPA CHARGES                                                      NI= 0 NR= 1 NTot=       3 LenBuf=    4000 N=       3       0       0       0       0
 Recovered energy= -76.2257810891     dipole=      0.000000000000      0.000000000000      0.000000000000
 Leave Link  612 at Tue Jan  9 18:47:55 2018, MaxMem=  4194304000 cpu:         2.0
 (Enter /home/chemsoft/gaussian/g09e01/g09/l701.exe)
 Compute integral first derivatives.
 ... and contract with generalized density number  2.
   4 Symmetry operations used in ECPInt.
 ECPInt:  NShTT=      78 NPrTT=     272 LenC2=      79 LenP2D=     265.
 LDataN:  DoStor=T MaxTD1= 5 Len=  102
 D1PCM: PCM CHGder 1st derivatives, ID1Alg=3 FixD1E=F DoIter=F DoCFld=F I1PDM=2.
 GePol: Maximum number of non-zero 1st derivatives   =     248
 Leave Link  701 at Tue Jan  9 18:47:56 2018, MaxMem=  4194304000 cpu:         7.7
 (Enter /home/chemsoft/gaussian/g09e01/g09/l702.exe)
 L702 exits ... SP integral derivatives will be done elsewhere.
 Leave Link  702 at Tue Jan  9 18:47:56 2018, MaxMem=  4194304000 cpu:         0.1
 (Enter /home/chemsoft/gaussian/g09e01/g09/l703.exe)
 Compute integral first derivatives, UseDBF=F ICtDFT=           0.
 Integral derivatives from FoFJK, PRISM(SPDF).
 Calling FoFJK, ICntrl=  10002127 FMM=F ISym2X=1 I1Cent= 0 IOpClX= 0 NMat=1 NMatS=1 NMatT=0.
 FoFJK:  IHMeth= 1 ICntrl=10002127 DoSepK=F KAlg= 0 I1Cent=   0 FoldK=F
 IRaf=         0 NMat=   1 IRICut=       1 DoRegI=T DoRafI=F ISym2E= 1.
 FoFCou: FMM=F IPFlag=           0 FMFlag=      100000 FMFlg1=         800
         NFxFlg=           0 DoJE=F BraDBF=F KetDBF=F FulRan=T
         wScrn=  0.000000 ICntrl=10002127 IOpCl=  0 I1Cent=           0 NGrid=           0
         NMat0=    1 NMatS0=      1 NMatT0=    0 NMatD0=    1 NMtDS0=    0 NMtDT0=    0
 Petite list used in FoFCou.
 Leave Link  703 at Tue Jan  9 18:47:57 2018, MaxMem=  4194304000 cpu:         1.2
 (Enter /home/chemsoft/gaussian/g09e01/g09/l716.exe)
 Dipole        =-5.47547409D-17-6.66133815D-16-8.31206262D-01
 ***** Axes restored to original set *****
 -------------------------------------------------------------------
 Center     Atomic                   Forces (Hartrees/Bohr)
 Number     Number              X              Y              Z
 -------------------------------------------------------------------
      1        8           0.086172695    0.000000000    0.061466386
      2        1           0.014253794   -0.000000000   -0.111121107
      3        1          -0.100426490   -0.000000000    0.049654721
 -------------------------------------------------------------------
 Cartesian Forces:  Max     0.111121107 RMS     0.063513771
 Leave Link  716 at Tue Jan  9 18:47:57 2018, MaxMem=  4194304000 cpu:         0.4
 (Enter /home/chemsoft/gaussian/g09e01/g09/l103.exe)

 GradGradGradGradGradGradGradGradGradGradGradGradGradGradGradGradGradGrad
 Berny optimization.
 FormGI is forming the generalized inverse of G from B-inverse, IUseBI=4.
 Internal  Forces:  Max     0.111121107 RMS     0.092629319
 Search for a local minimum.
 Step number   1 out of a maximum of   20
 All quantities printed in internal units (Hartrees-Bohrs-Radians)
 RMS Force = .92629D-01 SwitMx=.10000D-02 MixMth= 1
 Mixed Optimization -- RFO/linear search
 Second derivative matrix not updated -- first step.
 The second derivative matrix:
                          R1        R2        A1
           R1           0.24665
           R2           0.00000   0.24665
           A1           0.00000   0.00000   0.16000
 ITU=  0
     Eigenvalues ---    0.16000   0.24665   0.24665
 RFO step:  Lambda=-7.99646315D-02 EMin= 1.60000000D-01
 Linear search not attempted -- first point.
 Maximum step size (   0.300) exceeded in Quadratic search.
    -- Step size scaled by   0.600
 Iteration  1 RMS(Cart)=  0.17750470 RMS(Int)=  0.00682970
[...]
   XY=              0.0000   XZ=              0.0000   YZ=             -0.0000
 Traceless Quadrupole moment (field-independent basis, Debye-Ang):
   XX=             -1.3074   YY=              1.4746   ZZ=             -0.1672
   XY=              0.0000   XZ=              0.0000   YZ=             -0.0000
 Octapole moment (field-independent basis, Debye-Ang**2):
  XXX=              0.0000  YYY=              0.0000  ZZZ=             -1.2835  XYY=             -0.0000
  XXY=              0.0000  XXZ=             -0.3307  XZZ=              0.0000  YZZ=              0.0000
  YYZ=             -1.2575  XYZ=             -0.0000
 Hexadecapole moment (field-independent basis, Debye-Ang**3):
 XXXX=             -4.8489 YYYY=             -5.8098 ZZZZ=             -6.0333 XXXY=             -0.0000
 XXXZ=             -0.0000 YYYX=             -0.0000 YYYZ=             -0.0000 ZZZX=             -0.0000
 ZZZY=             -0.0000 XXYY=             -2.0430 XXZZ=             -1.8733 YYZZ=             -1.6047
 XXYZ=             -0.0000 YYXZ=              0.0000 ZZXY=             -0.0000
 N-N= 9.129695399308D+00 E-N=-1.988167549831D+02  KE= 7.581340560639D+01
 Symmetry A1   KE= 6.767622241645D+01
 Symmetry A2   KE= 1.531127991828D-35
 Symmetry B1   KE= 4.602569358201D+00
 Symmetry B2   KE= 3.534613831741D+00

 Atomic contributions to Alpha molecular orbitals:
 Alpha occ 1 OE=-19.717 is O1-s=1.00
 Alpha occ 2 OE=-1.120 is O1-s=0.72 H2-s=0.12 H3-s=0.12
 Alpha occ 3 OE=-0.588 is O1-p=0.58 H2-s=0.20 H3-s=0.20
 Alpha occ 4 OE=-0.455 is O1-p=0.74 O1-s=0.12
 Alpha occ 5 OE=-0.380 is O1-p=0.98
 Alpha vir 6 OE=0.104 is H3-s=0.55 H2-s=0.55 O1-s=-0.14
 Alpha vir 7 OE=0.185 is H3-s=0.47 H2-s=0.47
 Alpha vir 8 OE=0.649 is H2-s=0.37 H3-s=0.37 O1-p=0.15
 Alpha vir 9 OE=0.728 is H3-s=0.32 H2-s=0.32 O1-p=0.11
 Alpha vir 10 OE=1.022 is O1-p=0.85 O1-s=0.10
 Alpha vir 11 OE=1.032 is O1-p=1.00
 Alpha vir 12 OE=1.113 is O1-p=1.09
 Alpha vir 13 OE=1.199 is O1-s=0.91 H2-p=0.10 H3-p=0.10
 Alpha vir 14 OE=1.456 is H3-p=0.46 H2-p=0.46
 Alpha vir 15 OE=1.494 is H2-p=0.30 H3-p=0.30 O1-s=0.18 O1-p=0.14 O1-d=0.10
 Alpha vir 16 OE=1.648 is H2-p=0.44 H3-p=0.44 O1-d=0.10
 Alpha vir 17 OE=1.907 is H2-p=0.48 H3-p=0.48
 Alpha vir 18 OE=2.345 is H2-p=0.40 H3-p=0.40
 Alpha vir 19 OE=2.392 is H2-p=0.36 H3-p=0.36 O1-d=0.17
 Alpha vir 20 OE=3.114 is O1-d=0.90
 Alpha vir 21 OE=3.150 is O1-d=0.92
 Alpha vir 22 OE=3.345 is O1-d=0.89
 Alpha vir 23 OE=3.646 is O1-d=0.78
 Alpha vir 24 OE=3.993 is O1-d=0.86
 
 Orbital energies and kinetic energies (alpha):
                                 1                 2
   1         (A1)--O         -19.716821         28.798283
   2         (A1)--O          -1.119949          2.813095
   3         (B2)--O          -0.587840          1.767307
   4         (A1)--O          -0.455281          2.226733
   5         (B1)--O          -0.379620          2.301285
   6         (A1)--V           0.103829          0.842842
   7         (B2)--V           0.184895          0.903093
   8         (B2)--V           0.649484          1.909757
   9         (A1)--V           0.727696          2.493011
  10         (A1)--V           1.021879          3.489987
  11         (B1)--V           1.032313          3.665347
  12         (B2)--V           1.113080          2.963639
  13         (A1)--V           1.198513          3.281913
  14         (A2)--V           1.456428          2.136485
  15         (A1)--V           1.493607          2.366745
  16         (B1)--V           1.647536          2.297571
  17         (B2)--V           1.906933          2.489396
  18         (B2)--V           2.344820          4.142463
  19         (A1)--V           2.392426          4.507854
  20         (B1)--V           3.114003          4.463537
  21         (A2)--V           3.150257          4.531751
  22         (A1)--V           3.344613          4.746265
  23         (A1)--V           3.646234          5.509601
  24         (B2)--V           3.992922          5.879256
 Total kinetic energy from orbitals= 7.581340560639D+01
 No NMR shielding tensors so no spin-rotation constants.
 Leave Link  601 at Tue Jan  9 18:48:28 2018, MaxMem=  4194304000 cpu:         2.1
 (Enter /home/chemsoft/gaussian/g09e01/g09/l612.exe)
 Running external command "gaunbo6 R"
         input file       "/scr/martin/g09job979/Gau-26431.EIn"
         output file      "/scr/martin/g09job979/Gau-26431.EOu"
         message file     "/scr/martin/g09job979/Gau-26431.EMs"
         fchk file        "/scr/martin/g09job979/Gau-26431.EFC"
         mat. el file     "/scr/martin/g09job979/Gau-26431.EUF"

 Writing Wrt12E file "/scr/martin/g09job979/Gau-26431.EUF"
 Gaussian matrix elements                                         Version   1 NLab= 7 Len12L=8 Len4L=8
 Write GAUSSIAN SCALARS               from file   501 offset           0 to matrix element file.
 Write OVERLAP                        from file   514 offset           0 to matrix element file.
 Write CORE HAMILTONIAN ALPHA         from file   515 offset           0 to matrix element file.
 Write CORE HAMILTONIAN BETA          from file   515 offset         300 to matrix element file.
 Write KINETIC ENERGY                 from file   516 offset           0 to matrix element file.
 Write ORTHOGONAL BASIS               from file   685 offset           0 to matrix element file.
 Write DIPOLE INTEGRALS               from file   518 offset           0 to matrix element file.
 Array DIP VEL INTEGRALS               on  file    572 does not exist.
 Array R X DEL INTEGRALS               on  file    572 does not exist.
 Write ALPHA ORBITAL ENERGIES         from file     0 offset           0 to matrix element file.
 Write ALPHA MO COEFFICIENTS          from file 10524 offset           0 to matrix element file.
 Write ALPHA DENSITY MATRIX           from file     0 offset           0 to matrix element file.
 Write ALPHA SCF DENSITY MATRIX       from file 10528 offset           0 to matrix element file.
 Write ALPHA FOCK MATRIX              from file 10536 offset           0 to matrix element file.
 Write ALPHA MP2 DENSITY              from file     0 offset           0 to matrix element file.
 No 2e integrals to process.
 Perform NBO analysis...

 *********************************** NBO 6.0 ***********************************
             N A T U R A L   A T O M I C   O R B I T A L   A N D
          N A T U R A L   B O N D   O R B I T A L   A N A L Y S I S
 ***************************** development version *****************************
  (c) Copyright 1996-2016 Board of Regents of the University of Wisconsin System
      on behalf of the Theoretical Chemistry Institute.  All rights reserved.

          Cite this program as:

          NBO 6.0.  E. D. Glendening, J. K. Badenhoop, A. E. Reed,
          J. E. Carpenter, J. A. Bohmann, C. M. Morales, C. R. Landis,
          and F. Weinhold (Theoretical Chemistry Institute, University
          of Wisconsin, Madison, WI, 2013); http://nbo6.chem.wisc.edu/

 Filename set to /scr/martin/g09job979/Gau-26431

 Job title:  Water B2PLYP/def2-SVP


 NATURAL POPULATIONS:  Natural atomic orbital occupancies

  NAO Atom No lang   Type(AO)    Occupancy
 ------------------------------------------
   1    O  1  s      Cor( 1s)     1.99998
   2    O  1  s      Val( 2s)     1.75713
   3    O  1  s      Ryd( 3s)     0.00238
   4    O  1  px     Val( 2p)     1.99481
   5    O  1  px     Ryd( 3p)     0.00127
   6    O  1  py     Val( 2p)     1.44333
   7    O  1  py     Ryd( 3p)     0.00273
   8    O  1  pz     Val( 2p)     1.70756
   9    O  1  pz     Ryd( 3p)     0.00052
  10    O  1  dxy    Ryd( 3d)     0.00000
  11    O  1  dxz    Ryd( 3d)     0.00142
  12    O  1  dyz    Ryd( 3d)     0.00313
  13    O  1  dx2y2  Ryd( 3d)     0.00092
  14    O  1  dz2    Ryd( 3d)     0.00172

  15    H  2  s      Val( 1s)     0.53572
  16    H  2  s      Ryd( 2s)     0.00164
  17    H  2  px     Ryd( 2p)     0.00125
  18    H  2  py     Ryd( 2p)     0.00169
  19    H  2  pz     Ryd( 2p)     0.00126

  20    H  3  s      Val( 1s)     0.53572
  21    H  3  s      Ryd( 2s)     0.00164
  22    H  3  px     Ryd( 2p)     0.00125
  23    H  3  py     Ryd( 2p)     0.00169
  24    H  3  pz     Ryd( 2p)     0.00126


 Summary of Natural Population Analysis:

                                     Natural Population
             Natural    ---------------------------------------------
  Atom No    Charge        Core      Valence    Rydberg      Total
 --------------------------------------------------------------------
    O  1   -0.91688      1.99998     6.90282    0.01408     8.91688
    H  2    0.45844      0.00000     0.53572    0.00583     0.54156
    H  3    0.45844      0.00000     0.53572    0.00583     0.54156
 ====================================================================
 * Total *  0.00000      1.99998     7.97427    0.02575    10.00000

                                 Natural Population
 ---------------------------------------------------------
   Core                       1.99998 ( 99.9989% of    2)
   Valence                    7.97427 ( 99.6784% of    8)
   Natural Minimal Basis      9.97425 ( 99.7425% of   10)
   Natural Rydberg Basis      0.02575 (  0.2575% of   10)
 ---------------------------------------------------------

    Atom No         Natural Electron Configuration
 ----------------------------------------------------------------------------
      O  1      [core]2s( 1.76)2p( 5.15)3d( 0.01)
      H  2            1s( 0.54)
      H  3            1s( 0.54)


 NATURAL BOND ORBITAL ANALYSIS:

                            Occupancies       Lewis Structure    Low   High
         Max    Occ     -------------------  -----------------   occ   occ
  Cycle  Ctr   Thresh    Lewis   non-Lewis     CR  BD  nC  LP    (L)   (NL)
 ============================================================================
    1     2     1.90     9.99202   0.00798      1   2   0   2     0      0
    2     2     1.47     9.23995   0.76005      1   1   0   3     0      2
    3     2     1.44     8.91688   1.08312      1   0   0   4     0      2
    4     2     1.90     9.99202   0.00798      1   2   0   2     0      0
 ----------------------------------------------------------------------------

 Structure accepted: No low occupancy Lewis orbitals

 -------------------------------------------------------
   Core                      1.99998 ( 99.999% of   2)
   Valence Lewis             7.99204 ( 99.901% of   8)
  ==================      =============================
   Total Lewis               9.99202 ( 99.920% of  10)
  -----------------------------------------------------
   Valence non-Lewis         0.00018 (  0.002% of  10)
   Rydberg non-Lewis         0.00780 (  0.078% of  10)
  ==================      =============================
   Total non-Lewis           0.00798 (  0.080% of  10)
 -------------------------------------------------------


     (Occupancy)   Bond orbital / Coefficients / Hybrids
 ------------------ Lewis ------------------------------------------------------
   1. (1.99998) CR ( 1) O  1            s(100.00%)
                                         1.0000  0.0000  0.0000  0.0000  0.0000
                                         0.0000  0.0000  0.0000  0.0000  0.0000
                                         0.0000  0.0000  0.0000  0.0000
   2. (1.99750) LP ( 1) O  1            s(  0.00%)p 1.00( 99.93%)d 0.00(  0.07%)
                                         0.0000  0.0000  0.0000  0.9993 -0.0252
                                         0.0000  0.0000  0.0000  0.0000  0.0000
                                        -0.0267  0.0000  0.0000  0.0000
   3. (1.99710) LP ( 2) O  1            s( 54.44%)p 0.84( 45.51%)d 0.00(  0.04%)
                                         0.0000  0.7375 -0.0213  0.0000  0.0000
                                         0.0000  0.0000  0.6745 -0.0149  0.0000
                                         0.0000  0.0000 -0.0053 -0.0199
   4. (1.99872) BD ( 1) O  1- H  2
               ( 73.10%)   0.8550* O  1 s( 22.82%)p 3.38( 77.01%)d 0.01(  0.17%)
                                         0.0000  0.4771  0.0223  0.0000  0.0000
                                         0.7057  0.0307 -0.5208 -0.0049  0.0000
                                         0.0000 -0.0328 -0.0171  0.0177
               ( 26.90%)   0.5186* H  2 s( 99.64%)p 0.00(  0.36%)
                                         0.9982 -0.0009  0.0000 -0.0516  0.0308
   5. (1.99872) BD ( 1) O  1- H  3
               ( 73.10%)   0.8550* O  1 s( 22.82%)p 3.38( 77.01%)d 0.01(  0.17%)
                                         0.0000  0.4771  0.0223  0.0000  0.0000
                                        -0.7057 -0.0307 -0.5208 -0.0049  0.0000
                                         0.0000  0.0328 -0.0171  0.0177
               ( 26.90%)   0.5186* H  3 s( 99.64%)p 0.00(  0.36%)
                                         0.9982 -0.0009  0.0000  0.0516  0.0308
 ---------------- non-Lewis ----------------------------------------------------
   6. (0.00009) BD*( 1) O  1- H  2
               ( 26.90%)   0.5186* O  1 s( 22.82%)p 3.38( 77.01%)d 0.01(  0.17%)
               ( 73.10%)  -0.8550* H  2 s( 99.64%)p 0.00(  0.36%)
   7. (0.00009) BD*( 1) O  1- H  3
               ( 26.90%)   0.5186* O  1 s( 22.82%)p 3.38( 77.01%)d 0.01(  0.17%)
               ( 73.10%)  -0.8550* H  3 s( 99.64%)p 0.00(  0.36%)
   8. (0.00000) RY ( 1) O  1            s(  0.04%)p99.99( 95.77%)d99.99(  4.19%)
   9. (0.00000) RY ( 2) O  1            s( 99.86%)p 0.00(  0.14%)d 0.00(  0.00%)
  10. (0.00000) RY ( 3) O  1            s(  0.00%)p 1.00(100.00%)d 0.00(  0.00%)
  11. (0.00000) RY ( 4) O  1            s(  0.00%)p 1.00(100.00%)d 0.00(  0.00%)
  12. (0.00000) RY ( 5) O  1            s(  0.00%)p 0.00(  0.00%)d 1.00(100.00%)
  13. (0.00000) RY ( 6) O  1            s(  0.00%)p 1.00(  0.07%)d99.99( 99.93%)
  14. (0.00000) RY ( 7) O  1            s(  0.00%)p 1.00(  0.22%)d99.99( 99.78%)
  15. (0.00000) RY ( 8) O  1            s(  0.03%)p99.99(  4.22%)d99.99( 95.75%)
  16. (0.00000) RY ( 9) O  1            s(  0.00%)p 1.00(  0.11%)d99.99( 99.89%)
  17. (0.00168) RY ( 1) H  2            s( 95.34%)p 0.05(  4.66%)
                                         0.0065  0.9764  0.0000 -0.0182 -0.2151
  18. (0.00125) RY ( 2) H  2            s(  0.00%)p 1.00(100.00%)
                                         0.0000  0.0000  1.0000  0.0000  0.0000
  19. (0.00096) RY ( 3) H  2            s(  3.65%)p26.37( 96.35%)
                                         0.0025  0.1911  0.0000  0.5361  0.8222
  20. (0.00000) RY ( 4) H  2            s(  1.37%)p72.03( 98.63%)
  21. (0.00168) RY ( 1) H  3            s( 95.34%)p 0.05(  4.66%)
                                         0.0065  0.9764  0.0000  0.0182 -0.2151
  22. (0.00125) RY ( 2) H  3            s(  0.00%)p 1.00(100.00%)
                                         0.0000  0.0000  1.0000  0.0000  0.0000
  23. (0.00096) RY ( 3) H  3            s(  3.65%)p26.37( 96.35%)
                                         0.0025  0.1911  0.0000 -0.5361  0.8222
  24. (0.00000) RY ( 4) H  3            s(  1.37%)p72.03( 98.63%)


 NHO DIRECTIONALITY AND BOND BENDING (deviation from line of nuclear centers at
                                      the position of maximum hybrid amplitude)

         [Thresholds for printing:  angular deviation  >  1.0 degree]
                                    p- or d-character  > 25.0%
                                    orbital occupancy  >  0.10e

                        Line of Centers        Hybrid 1             Hybrid 2
                        ---------------  -------------------  ------------------
           NBO            Theta   Phi    Theta   Phi    Dev   Theta   Phi    Dev
 ===============================================================================
   2. LP ( 1) O  1          --     --     90.8  180.0   --      --     --    --
   3. LP ( 2) O  1          --     --      0.0    0.0   --      --     --    --
   4. BD ( 1) O  1- H  2  128.6   90.0   127.4   90.0   1.2     --     --    --
   5. BD ( 1) O  1- H  3  128.6  270.0   127.4  270.0   1.2     --     --    --


 NATURAL BOND ORBITALS (Summary):

           NBO                 Occupancy
 ========================================
 Molecular unit  1  (H2O)
 ------ Lewis ---------------------------
    1. CR ( 1) O  1             1.99998
    2. LP ( 1) O  1             1.99750
    3. LP ( 2) O  1             1.99710
    4. BD ( 1) O  1- H  2       1.99872
    5. BD ( 1) O  1- H  3       1.99872
 ------ non-Lewis -----------------------
    6. BD*( 1) O  1- H  2       0.00009
    7. BD*( 1) O  1- H  3       0.00009
    8. RY ( 1) O  1             0.00000
    9. RY ( 2) O  1             0.00000
   10. RY ( 3) O  1             0.00000
   11. RY ( 4) O  1             0.00000
   12. RY ( 5) O  1             0.00000
   13. RY ( 6) O  1             0.00000
   14. RY ( 7) O  1             0.00000
   15. RY ( 8) O  1             0.00000
   16. RY ( 9) O  1             0.00000
   17. RY ( 1) H  2             0.00168
   18. RY ( 2) H  2             0.00125
   19. RY ( 3) H  2             0.00096
   20. RY ( 4) H  2             0.00000
   21. RY ( 1) H  3             0.00168
   22. RY ( 2) H  3             0.00125
   23. RY ( 3) H  3             0.00096
   24. RY ( 4) H  3             0.00000
          -------------------------------
                 Total Lewis    9.99202  ( 99.9202%)
           Valence non-Lewis    0.00018  (  0.0018%)
           Rydberg non-Lewis    0.00780  (  0.0780%)
          -------------------------------
               Total unit  1   10.00000  (100.0000%)
              Charge unit  1    0.00000

 $CHOOSE
   LONE 1 2 END
   BOND S 1 2 S 1 3 END
 $END

 NBO analysis completed in 0.03 CPU seconds (0 wall seconds)
 Maximum scratch memory used by NBO was 146826 words
 Maximum scratch memory used by G09NBO was 11155 words

 Read Unf file /scr/martin/g09job979/Gau-26431.EUF:
 Label Gaussian matrix elements                                         IVers= 1 NLab= 2 Version=ES64L-G09RevE.01
 Title Water B2PLYP/def2-SVP                                           
 NAtoms=     3 NBasis=    24 NBsUse=    24 ICharg=     0 Multip=     1 NE=    10 Len12L=8 Len4L=8
 Label GAUSSIAN SCALARS                                                 NI= 1 NR= 1 NTot=       1 LenBuf=    2000 N=    1000       1       1       1       1
 Label NPA CHARGES                                                      NI= 0 NR= 1 NTot=       3 LenBuf=    4000 N=       3       0       0       0       0
 Recovered energy= -76.2925206902     dipole=      0.000000000000      0.000000000000      0.000000000000
 Leave Link  612 at Tue Jan  9 18:48:28 2018, MaxMem=  4194304000 cpu:         2.2
 (Enter /home/chemsoft/gaussian/g09e01/g09/l9999.exe)
 B after Tr=    -0.067857    0.000000   -0.048402
         Rot=    1.000000    0.000000   -0.000000    0.000000 Ang=   0.00 deg.
 Final structure in terms of initial Z-matrix:
 O
 H,1,bond
 H,1,bond,2,angle
      Variables:
 bond=0.96450156
 angle=102.70939149

 Test job not archived.
 1\1\GINC-LENOX07\FOpt\RB2PLYP-FC\def2SVP\H2O1\MARTIN\09-Jan-2018\0\\#p
  b2plyp/def2SVP opt scf(xqc) gfinput gfoldprint iop(6/7=3) scrf(pcm,so
 lvent=toluene) pop=full pop=nbo6 pop=allorbitals symmetry=loose\\Water
  B2PLYP/def2-SVP\\0,1\O,0.0512973485,0.,0.0365900431\H,0.1042179552,0.
 ,0.9996386788\H,0.979106987,0.,-0.2269105072\\Version=ES64L-G09RevE.01
 \State=1-A1\HF=-76.2278509\MP2=-76.2925207\RMSD=7.214e-09\RMSF=4.214e-
 05\Dipole=0.6825612,0.,0.4868662\PG=C02V [C2(O1),SGV(H2)]\\@


 EVANS BOLDLY PUT 50 ATM. OF ETHYLENE IN A CELL WITH 25 ATM. OF OXYGEN.
 THE APPARATUS SUBSEQUENTLY BLEW UP, BUT LUCKILY NOT BEFORE HE
 OBTAINED THE SPECTRA SHOWN IN FIGURE 8.
 A.J.MERER AND R.S.MULLIKEN, CHEM.REV. 69, 645 (1969)
 Job cpu time:       0 days  0 hours  4 minutes 15.9 seconds.
 File lengths (MBytes):  RWF=      9 Int=      0 D2E=      0 Chk=      1 Scr=      1
 Normal termination of Gaussian 09 at Tue Jan  9 18:48:29 2018.
