 Entering Gaussian System, Link 0=g09
 Input=h2o.df-bp86-d3.def2tzvpp.freq.gjf
 Output=h2o.df-bp86-d3.def2tzvpp.freq.log
 Initial command:
 /home/chemsoft/gaussian/g09e01/g09/l1.exe "/scr/martin/g09job989/Gau-2794.inp" -scrdir="/scr/martin/g09job989/"
 Entering Link 1 = /home/chemsoft/gaussian/g09e01/g09/l1.exe PID=      2795.
  
 Copyright (c) 1988,1990,1992,1993,1995,1998,2003,2009,2015,
            Gaussian, Inc.  All Rights Reserved.
  
 This is part of the Gaussian(R) 09 program.  It is based on
 the Gaussian(R) 03 system (copyright 2003, Gaussian, Inc.),
 the Gaussian(R) 98 system (copyright 1998, Gaussian, Inc.),
 the Gaussian(R) 94 system (copyright 1995, Gaussian, Inc.),
 the Gaussian 92(TM) system (copyright 1992, Gaussian, Inc.),
 the Gaussian 90(TM) system (copyright 1990, Gaussian, Inc.),
 the Gaussian 88(TM) system (copyright 1988, Gaussian, Inc.),
 the Gaussian 86(TM) system (copyright 1986, Carnegie Mellon
 University), and the Gaussian 82(TM) system (copyright 1983,
 Carnegie Mellon University). Gaussian is a federally registered
 trademark of Gaussian, Inc.
  
 This software contains proprietary and confidential information,
 including trade secrets, belonging to Gaussian, Inc.
  
 This software is provided under written license and may be
 used, copied, transmitted, or stored only in accord with that
 written license.
  
 The following legend is applicable only to US Government
 contracts under FAR:
  
                    RESTRICTED RIGHTS LEGEND
  
 Use, reproduction and disclosure by the US Government is
 subject to restrictions as set forth in subparagraphs (a)
 and (c) of the Commercial Computer Software - Restricted
 Rights clause in FAR 52.227-19.
  
 Gaussian, Inc.
 340 Quinnipiac St., Bldg. 40, Wallingford CT 06492
  
  
 ---------------------------------------------------------------
 Warning -- This program may not be used in any manner that
 competes with the business of Gaussian, Inc. or will provide
 assistance to any competitor of Gaussian, Inc.  The licensee
 of this program is prohibited from giving any competitor of
 Gaussian, Inc. access to this program.  By using this program,
 the user acknowledges that Gaussian, Inc. is engaged in the
 business of creating and licensing software in the field of
 computational chemistry and represents and warrants to the
 licensee that it is not a competitor of Gaussian, Inc. and that
 it will not use this program in any manner prohibited above.
 ---------------------------------------------------------------
  

 Cite this work as:
 Gaussian 09, Revision E.01,
 M. J. Frisch, G. W. Trucks, H. B. Schlegel, G. E. Scuseria, 
 M. A. Robb, J. R. Cheeseman, G. Scalmani, V. Barone, B. Mennucci, 
 G. A. Petersson, H. Nakatsuji, M. Caricato, X. Li, H. P. Hratchian, 
 A. F. Izmaylov, J. Bloino, G. Zheng, J. L. Sonnenberg, M. Hada, 
 M. Ehara, K. Toyota, R. Fukuda, J. Hasegawa, M. Ishida, T. Nakajima, 
 Y. Honda, O. Kitao, H. Nakai, T. Vreven, J. A. Montgomery, Jr., 
 J. E. Peralta, F. Ogliaro, M. Bearpark, J. J. Heyd, E. Brothers, 
 K. N. Kudin, V. N. Staroverov, T. Keith, R. Kobayashi, J. Normand, 
 K. Raghavachari, A. Rendell, J. C. Burant, S. S. Iyengar, J. Tomasi, 
 M. Cossi, N. Rega, J. M. Millam, M. Klene, J. E. Knox, J. B. Cross, 
 V. Bakken, C. Adamo, J. Jaramillo, R. Gomperts, R. E. Stratmann, 
 O. Yazyev, A. J. Austin, R. Cammi, C. Pomelli, J. W. Ochterski, 
 R. L. Martin, K. Morokuma, V. G. Zakrzewski, G. A. Voth, 
 P. Salvador, J. J. Dannenberg, S. Dapprich, A. D. Daniels, 
 O. Farkas, J. B. Foresman, J. V. Ortiz, J. Cioslowski, 
 and D. J. Fox, Gaussian, Inc., Wallingford CT, 2013.
 
 ******************************************
 Gaussian 09:  ES64L-G09RevE.01 30-Nov-2015
                 9-Jan-2018 
 ******************************************
 %nproc=8
 Will use up to    8 processors via shared memory.
 %mem=32000MB
 %oldchk=h2o.df-bp86-d3.def2tzvpp.chk
 %chk=h2o.df-bp86-d3.def2tzvpp.freq.chk
 Copying data from "h2o.df-bp86-d3.def2tzvpp.chk" to current chk file "h2o.df-bp86-d3.def2tzvpp.freq.chk".
 ----------------------------------------------------------------------
 #P BP86/def2TZVPP/W06 DenFit empiricaldispersion=GD3 freq geom=check g
 uess=read scf(xqc,MaxConventionalCycle=500) int(ultrafinegrid) scrf(pc
 m,solvent=toluene) gfinput gfoldprint iop(6/7=3) symmetry(loose) pop=f
 ull pop=nbo6 pop(Allorbitals,ThreshOrbitals=5)
 ----------------------------------------------------------------------
 1/10=4,29=2,30=1,38=1/1,3;
 2/12=2,17=4,18=3,40=1/2;
 3/5=44,7=202,11=2,14=-4,16=1,24=11,25=1,30=1,70=2201,71=2,72=13,74=404,75=-5,82=40,116=-2,124=31,140=1/1,2,3;
 4/5=1/1;
 5/5=2,8=3,13=1,38=6,53=13,85=500,98=1/2,8;
 8/6=4,10=90,11=11/1;
 11/6=1,8=1,9=11,15=111,16=1/1,2,10;
 10/6=1/2;
 6/7=3,18=1,28=1,40=1,87=-1,88=5,113=1,114=1,124=3103/1,12;
 7/8=1,10=1,25=1/1,2,3,16;
 1/10=4,30=1/3;
 99//99;
 Leave Link    1 at Tue Jan  9 19:09:59 2018, MaxMem=  4194304000 cpu:         1.4
 (Enter /home/chemsoft/gaussian/g09e01/g09/l101.exe)
 --------------------------------
 Water DF-BP86-D3(PCM)/def2-TZVPP
 --------------------------------
 Structure from the checkpoint file:  "h2o.df-bp86-d3.def2tzvpp.freq.chk"
 Charge =  0 Multiplicity = 1
 Redundant internal coordinates found in file.
 O,0,0.0532961168,0.,0.0380157507
 H,0,0.0970662951,0.,1.0075509977
 H,0,0.9842598788,0.,-0.2362485338
 Recover connectivity data from disk.
 NAtoms=      3 NQM=        3 NQMF=       0 NMMI=      0 NMMIF=      0
                NMic=       0 NMicF=      0.
                    Isotopes and Nuclear Properties:
 (Nuclear quadrupole moments (NQMom) in fm**2, nuclear magnetic moments (NMagM)
  in nuclear magnetons)

  Atom         1           2           3
 IAtWgt=          16           1           1
 AtmWgt=  15.9949146   1.0078250   1.0078250
 NucSpn=           0           1           1
 AtZEff=  -5.6000000  -1.0000000  -1.0000000
 NQMom=    0.0000000   0.0000000   0.0000000
 NMagM=    0.0000000   2.7928460   2.7928460
 AtZNuc=   8.0000000   1.0000000   1.0000000
 Leave Link  101 at Tue Jan  9 19:09:59 2018, MaxMem=  4194304000 cpu:         2.0
 (Enter /home/chemsoft/gaussian/g09e01/g09/l103.exe)

 GradGradGradGradGradGradGradGradGradGradGradGradGradGradGradGradGradGrad
 Berny optimization.
 Initialization pass.
                           ----------------------------
                           !    Initial Parameters    !
                           ! (Angstroms and Degrees)  !
 --------------------------                            --------------------------
 ! Name  Definition              Value          Derivative Info.                !
 --------------------------------------------------------------------------------
 ! R1    R(1,2)                  0.9705         calculate D2E/DX2 analytically  !
 ! R2    R(1,3)                  0.9705         calculate D2E/DX2 analytically  !
 ! A1    A(2,1,3)              103.8302         calculate D2E/DX2 analytically  !
 --------------------------------------------------------------------------------
 Trust Radius=3.00D-01 FncErr=1.00D-07 GrdErr=1.00D-07
 Number of steps in this run=      2 maximum allowed number of steps=      2.
 GradGradGradGradGradGradGradGradGradGradGradGradGradGradGradGradGradGrad

 Leave Link  103 at Tue Jan  9 19:09:59 2018, MaxMem=  4194304000 cpu:         0.0
 (Enter /home/chemsoft/gaussian/g09e01/g09/l202.exe)
                          Input orientation:                          
 ---------------------------------------------------------------------
 Center     Atomic      Atomic             Coordinates (Angstroms)
 Number     Number       Type             X           Y           Z
 ---------------------------------------------------------------------
      1          8           0        0.053296   -0.000000    0.038016
      2          1           0        0.097066   -0.000000    1.007551
      3          1           0        0.984260    0.000000   -0.236249
 ---------------------------------------------------------------------
                    Distance matrix (angstroms):
                    1          2          3
     1  O    0.000000
     2  H    0.970523   0.000000
     3  H    0.970523   1.527792   0.000000
 Stoichiometry    H2O
 Framework group  C2V[C2(O),SGV(H2)]
 Deg. of freedom     2
 Full point group                 C2V     NOp   4
 RotChk:  IX=0 Diff= 6.68D-16
 Largest Abelian subgroup         C2V     NOp   4
 Largest concise Abelian subgroup C2      NOp   2
                         Standard orientation:                         
 ---------------------------------------------------------------------
 Center     Atomic      Atomic             Coordinates (Angstroms)
 Number     Number       Type             X           Y           Z
 ---------------------------------------------------------------------
      1          8           0        0.000000   -0.000000    0.119729
      2          1           0       -0.000000    0.763896   -0.478917
      3          1           0       -0.000000   -0.763896   -0.478917
 ---------------------------------------------------------------------
 Rotational constants (GHZ):    787.7843363    429.6683233    278.0280385
 Leave Link  202 at Tue Jan  9 19:09:59 2018, MaxMem=  4194304000 cpu:         0.0
 (Enter /home/chemsoft/gaussian/g09e01/g09/l301.exe)
 Standard basis: def2TZVPP (5D, 7F)
 ======================================================================================================
                                       Pseudopotential Parameters
 ======================================================================================================
  Center     Atomic      Valence      Angular      Power
  Number     Number     Electrons     Momentum     of R      Exponent        Coefficient   SO-Coeffient
 ======================================================================================================
    1          8
                                   No pseudopotential on this center.
    2          1
                                   No pseudopotential on this center.
    3          1
                                   No pseudopotential on this center.
 ======================================================================================================
 Ernie: Thresh=  0.10000D-02 Tol=  0.10000D-05 Strict=F.
 AO basis set in the form of general basis input (Overlap normalization):
      1 0
 S   6 1.00       0.000000000000
      0.2703238263D+05  0.5722733521D-03
      0.4052387139D+04  0.4435323349D-02
      0.9223272271D+03  0.2302010771D-01
      0.2612407099D+03  0.9282249067D-01
      0.8535464135D+02  0.2937850001D+00
      0.3103503525D+02  0.6740160450D+00
 S   2 1.00       0.000000000000
      0.1226086073D+02  0.6383993703D+00
      0.4998707601D+01  0.3953458713D+00
 S   1 1.00       0.000000000000
      0.1170310816D+01  0.1000000000D+01
 S   1 1.00       0.000000000000
      0.4647474099D+00  0.1000000000D+01
 S   1 1.00       0.000000000000
      0.1850453636D+00  0.1000000000D+01
 P   4 1.00       0.000000000000
      0.6327495480D+02  0.1201833222D-01
      0.1462704938D+02  0.8300542179D-01
      0.4450122346D+01  0.3199174393D+00
      0.1527579965D+01  0.7071554292D+00
 P   1 1.00       0.000000000000
      0.5293511794D+00  0.1000000000D+01
 P   1 1.00       0.000000000000
      0.1747842127D+00  0.1000000000D+01
 D   1 1.00       0.000000000000
      0.2314000000D+01  0.1000000000D+01
 D   1 1.00       0.000000000000
      0.6450000000D+00  0.1000000000D+01
 F   1 1.00       0.000000000000
      0.1428000000D+01  0.1000000000D+01
 ****
      2 0
 S   3 1.00       0.000000000000
      0.3406134100D+02  0.2543930721D-01
      0.5123574600D+01  0.1900859489D+00
      0.1164662600D+01  0.8524411301D+00
 S   1 1.00       0.000000000000
      0.3272304100D+00  0.1000000000D+01
 S   1 1.00       0.000000000000
      0.1030724100D+00  0.1000000000D+01
 P   1 1.00       0.000000000000
      0.1407000000D+01  0.1000000000D+01
 P   1 1.00       0.000000000000
      0.3880000000D+00  0.1000000000D+01
 D   1 1.00       0.000000000000
      0.1057000000D+01  0.1000000000D+01
 ****
      3 0
 S   3 1.00       0.000000000000
      0.3406134100D+02  0.2543930721D-01
      0.5123574600D+01  0.1900859489D+00
      0.1164662600D+01  0.8524411301D+00
 S   1 1.00       0.000000000000
      0.3272304100D+00  0.1000000000D+01
 S   1 1.00       0.000000000000
      0.1030724100D+00  0.1000000000D+01
 P   1 1.00       0.000000000000
      0.1407000000D+01  0.1000000000D+01
 P   1 1.00       0.000000000000
      0.3880000000D+00  0.1000000000D+01
 D   1 1.00       0.000000000000
      0.1057000000D+01  0.1000000000D+01
 ****

 ***********************************************************************************************************************************
 *             ATOMIC CENTER             *        ATOMIC ORBITAL       *                     GAUSSIAN FUNCTIONS                    *
 ***********************************************************************************************************************************
 *                                       * FUNCTION    SHELL    SCALE  *                                                           *
 *    ATOM   X-COORD  Y-COORD  Z-COORD   *  NUMBER     TYPE     FACTOR *  EXPONENT    S-COEF      P-COEF      D-COEF      F-COEF   *
 ***********************************************************************************************************************************
 *     O      0.00000  0.00000  0.22626                                                                                            *
+                                                1   S           1.00                                                               
+                                                                      0.270324D+050.859858D+000.000000D+000.000000D+000.000000D+00 
 *                                                                     0.405239D+040.160553D+010.000000D+000.000000D+000.000000D+00*
 *                                                                     0.922327D+030.274588D+010.000000D+000.000000D+000.000000D+00*
 *                                                                     0.261241D+030.429877D+010.000000D+000.000000D+000.000000D+00*
 *                                                                     0.853546D+020.587977D+010.000000D+000.000000D+000.000000D+00*
 *                                                                     0.310350D+020.631640D+010.000000D+000.000000D+000.000000D+00*
 *                                               2   S           1.00                                                              *
+                                                                      0.122609D+020.298121D+010.000000D+000.000000D+000.000000D+00 
 *                                                                     0.499871D+010.941956D+000.000000D+000.000000D+000.000000D+00*
 *                                               3   S           1.00                                                              *
+                                                                      0.117031D+010.801929D+000.000000D+000.000000D+000.000000D+00 
 *                                               4   S           1.00                                                              *
+                                                                      0.464747D+000.401165D+000.000000D+000.000000D+000.000000D+00 
 *                                               5   S           1.00                                                              *
+                                                                      0.185045D+000.201080D+000.000000D+000.000000D+000.000000D+00 
 *                                           6-  8   P           1.00                                                              *
+                                                                      0.632750D+020.000000D+000.305720D+010.000000D+000.000000D+00 
 *                                                                     0.146270D+020.000000D+000.338448D+010.000000D+000.000000D+00*
 *                                                                     0.445012D+010.000000D+000.294743D+010.000000D+000.000000D+00*
 *                                                                     0.152758D+010.000000D+000.171183D+010.000000D+000.000000D+00*
 *                                           9- 11   P           1.00                                                              *
+                                                                      0.529351D+000.000000D+000.643606D+000.000000D+000.000000D+00 
 *                                          12- 14   P           1.00                                                              *
+                                                                      0.174784D+000.000000D+000.161090D+000.000000D+000.000000D+00 
 *                                          15- 19   D           1.00                                                              *
+                                                                      0.231400D+010.000000D+000.000000D+000.714571D+010.000000D+00 
 *                                          20- 24   D           1.00                                                              *
+                                                                      0.645000D+000.000000D+000.000000D+000.764080D+000.000000D+00 
 *                                          19- 31   F           1.00                                                              *
+                                                                      0.142800D+010.000000D+000.000000D+000.000000D+000.328165D+01 
 *---------------------------------------------------------------------------------------------------------------------------------*
 *     H     -0.00000  1.44355 -0.90502                                                                                            *
+                                               32   S           1.00                                                               
+                                                                      0.340613D+020.255630D+000.000000D+000.000000D+000.000000D+00 
 *                                                                     0.512357D+010.461360D+000.000000D+000.000000D+000.000000D+00*
 *                                                                     0.116466D+010.681121D+000.000000D+000.000000D+000.000000D+00*
 *                                              33   S           1.00                                                              *
+                                                                      0.327230D+000.308355D+000.000000D+000.000000D+000.000000D+00 
 *                                              34   S           1.00                                                              *
+                                                                      0.103072D+000.129648D+000.000000D+000.000000D+000.000000D+00 
 *                                          35- 37   P           1.00                                                              *
+                                                                      0.140700D+010.000000D+000.218428D+010.000000D+000.000000D+00 
 *                                          38- 40   P           1.00                                                              *
+                                                                      0.388000D+000.000000D+000.436495D+000.000000D+000.000000D+00 
 *                                          41- 45   D           1.00                                                              *
+                                                                      0.105700D+010.000000D+000.000000D+000.181360D+010.000000D+00 
 *---------------------------------------------------------------------------------------------------------------------------------*
 *     H     -0.00000 -1.44355 -0.90502                                                                                            *
+                                               46   S           1.00                                                               
+                                                                      0.340613D+020.255630D+000.000000D+000.000000D+000.000000D+00 
 *                                                                     0.512357D+010.461360D+000.000000D+000.000000D+000.000000D+00*
 *                                                                     0.116466D+010.681121D+000.000000D+000.000000D+000.000000D+00*
 *                                              47   S           1.00                                                              *
+                                                                      0.327230D+000.308355D+000.000000D+000.000000D+000.000000D+00 
 *                                              48   S           1.00                                                              *
+                                                                      0.103072D+000.129648D+000.000000D+000.000000D+000.000000D+00 
 *                                          49- 51   P           1.00                                                              *
+                                                                      0.140700D+010.000000D+000.218428D+010.000000D+000.000000D+00 
 *                                          52- 54   P           1.00                                                              *
+                                                                      0.388000D+000.000000D+000.436495D+000.000000D+000.000000D+00 
 *                                          55- 59   D           1.00                                                              *
+                                                                      0.105700D+010.000000D+000.000000D+000.181360D+010.000000D+00 
 ***********************************************************************************************************************************
 There are    28 symmetry adapted cartesian basis functions of A1  symmetry.
 There are     7 symmetry adapted cartesian basis functions of A2  symmetry.
 There are    12 symmetry adapted cartesian basis functions of B1  symmetry.
 There are    19 symmetry adapted cartesian basis functions of B2  symmetry.
 There are    24 symmetry adapted basis functions of A1  symmetry.
 There are     7 symmetry adapted basis functions of A2  symmetry.
 There are    11 symmetry adapted basis functions of B1  symmetry.
 There are    17 symmetry adapted basis functions of B2  symmetry.
    59 basis functions,    85 primitive gaussians,    66 cartesian basis functions
     5 alpha electrons        5 beta electrons
       nuclear repulsion energy         9.0703618517 Hartrees.
 IExCor=  404 DFT=T Ex=B Corr=P86 ExCW=0 ScaHFX=  0.000000
 ScaDFX=  1.000000  1.000000  1.000000  1.000000 ScalE2=  1.000000  1.000000
 IRadAn=      5 IRanWt=     -1 IRanGd=            0 ICorTp=0 IEmpDi=131
 NAtoms=    3 NActive=    3 NUniq=    2 SFac= 2.25D+00 NAtFMM=   60 NAOKFM=F Big=F
 Integral buffers will be    131072 words long.
 Raffenetti 2 integral format.
 Two-electron integral symmetry is turned on.
 R6Disp:  Grimme-D3 Dispersion energy=       -0.0000092111 Hartrees.
 Nuclear repulsion after empirical dispersion term =        9.0703526406 Hartrees.
 Standard density basis: W06 (5D, 7F)
    71 Density fitting functions
 Density basis set in the form of general basis input (Coulomb normalization):
      1 0
 S   7 1.00       0.000000000000
      0.2876821660D+04  0.2270593741D-02
      0.1004744303D+04  0.7771821934D-02
      0.3697579954D+03  0.4500776675D-01
      0.1429442404D+03  0.1614169872D+00
      0.5783664250D+02  0.4002483159D+00
      0.2438649830D+02  0.4055352428D+00
      0.1066226620D+02  0.1264483877D-01
 S   1 1.00       0.000000000000
      0.4807043700D+01 -0.1000000000D+01
 S   1 1.00       0.000000000000
      0.2221077000D+01  0.1000000000D+01
 S   1 1.00       0.000000000000
      0.1044779500D+01  0.1000000000D+01
 S   1 1.00       0.000000000000
      0.4968425000D+00  0.1000000000D+01
 S   1 1.00       0.000000000000
      0.2371384000D+00  0.1000000000D+01
 P   2 1.00       0.000000000000
      0.6426133820D+02 -0.1493990575D+00
      0.1630060760D+02 -0.8870141552D+00
 P   1 1.00       0.000000000000
      0.4355054200D+01  0.1000000000D+01
 P   1 1.00       0.000000000000
      0.1201955400D+01  0.1000000000D+01
 P   1 1.00       0.000000000000
      0.3354196000D+00  0.1000000000D+01
 D   2 1.00       0.000000000000
      0.9214661100D+01 -0.2892091355D+00
      0.2843525100D+01 -0.7372695630D+00
 D   1 1.00       0.000000000000
      0.9955759000D+00 -0.1000000000D+01
 D   1 1.00       0.000000000000
      0.3649441000D+00 -0.1000000000D+01
 F   2 1.00       0.000000000000
      0.2642011500D+01  0.3737238795D+00
      0.7345613000D+00  0.7087681254D+00
 G   1 1.00       0.000000000000
      0.1393100000D+01 -0.1000000000D+01
 ****
      2 0
 S   3 1.00       0.000000000000
      0.1567529270D+02  0.3261158972D-01
      0.3606357800D+01  0.2298046837D+00
      0.1208001600D+01  0.7572083240D+00
 S   1 1.00       0.000000000000
      0.4726794000D+00  0.1000000000D+01
 S   1 1.00       0.000000000000
      0.2018100000D+00  0.1000000000D+01
 P   2 1.00       0.000000000000
      0.2028136500D+01  0.3618361986D+00
      0.5358730000D+00  0.7039303088D+00
 D   1 1.00       0.000000000000
      0.2216512400D+01  0.1000000000D+01
 ****
      3 0
 S   3 1.00       0.000000000000
      0.1567529270D+02  0.3261158972D-01
      0.3606357800D+01  0.2298046837D+00
      0.1208001600D+01  0.7572083240D+00
 S   1 1.00       0.000000000000
      0.4726794000D+00  0.1000000000D+01
 S   1 1.00       0.000000000000
      0.2018100000D+00  0.1000000000D+01
 P   2 1.00       0.000000000000
      0.2028136500D+01  0.3618361986D+00
      0.5358730000D+00  0.7039303088D+00
 D   1 1.00       0.000000000000
      0.2216512400D+01  0.1000000000D+01
 ****

 There are    71 symmetry adapted density basis functions of A   symmetry.
 Force inversion solution in PCM.
 ------------------------------------------------------------------------------
 Polarizable Continuum Model (PCM)
 =================================
 Model                : PCM (using non-symmetric T matrix).
 Atomic radii         : UFF (Universal Force Field).
 Polarization charges : Total charges.
 Charge compensation  : None.
 Solution method      : Matrix inversion.
 Cavity type          : Scaled VdW (van der Waals Surface) (Alpha=1.100).
 Cavity algorithm     : GePol (No added spheres)
                        Default sphere list used, NSphG=    3.
                        Lebedev-Laikov grids with approx.  5.0 points / Ang**2.
                        Smoothing algorithm: York/Karplus (Gamma=1.0000).
                        Polarization charges: spherical gaussians, with
                                              point-specific exponents (IZeta= 3).
                        Self-potential: point-specific (ISelfS= 7).
                        Self-field    : sphere-specific E.n sum rule (ISelfD= 2).
 1st derivatives      : Analytical E(r).r(x)/FMM algorithm (CHGder, D1EAlg=3).
                        Cavity 1st derivative terms included.
 2nd derivatives      : Analytical E(r).r(xy)/FMM algorithm (CHGder, D2EAlg=3).
                        Cavity 2nd derivative terms included.
 Solvent              : Toluene, Eps=   2.374100 Eps(inf)=   2.238315
 ------------------------------------------------------------------------------
 Spheres list:
 ISph  on   Nord     Re0    Alpha      Xe            Ye            Ze
    1   O      1    1.7500  1.100      0.000000      0.000000      0.119729
    2   H      2    1.4430  1.100     -0.000000      0.763896     -0.478917
    3   H      3    1.4430  1.100     -0.000000     -0.763896     -0.478917
 ------------------------------------------------------------------------------
 GePol: Number of generator spheres                  =       3
 GePol: Total number of spheres                      =       3
 GePol: Number of exposed spheres                    =       3 (100.00%)
 GePol: Number of points                             =     388
 GePol: Average weight of points                     =       0.14
 GePol: Minimum weight of points                     =   0.49D-05
 GePol: Maximum weight of points                     =    0.20212
 GePol: Number of points with low weight             =       9
 GePol: Fraction of low-weight points (<1% of avg)   =       2.32%
 GePol: Cavity surface area                          =     55.761 Ang**2
 GePol: Cavity volume                                =     37.573 Ang**3
 Leave Link  301 at Tue Jan  9 19:09:59 2018, MaxMem=  4194304000 cpu:         0.5
 (Enter /home/chemsoft/gaussian/g09e01/g09/l302.exe)
 NPDir=0 NMtPBC=     1 NCelOv=     1 NCel=       1 NClECP=     1 NCelD=      1
         NCelK=      1 NCelE2=     1 NClLst=     1 CellRange=     0.0.
 One-electron integrals computed using PRISM.
 One-electron integral symmetry used in STVInt
   4 Symmetry operations used in ECPInt.
 ECPInt:  NShTT=     276 NPrTT=     694 LenC2=     277 LenP2D=     681.
 LDataN:  DoStor=T MaxTD1= 6 Len=  172
 NBasis=    59 RedAO= T EigKep=  3.28D-03  NBF=    24     7    11    17
 NBsUse=    59 1.00D-06 EigRej= -1.00D+00 NBFU=    24     7    11    17
 NBasis=       59 NBas6D=       66 NTT=        1770   NTT6D=     2211
 NDBShl=       25 NDBF=         71 NDBF6D=       85  NNucDB=        0
 IDenFi=        2 ISolve=        0 FullAP=F BlkAPC=T NucTyp=        0
 TolInv= 1.00D-06 TolIt=  1.00D-10 IR12=0.
 FoFCou: FMM=F IPFlag=           0 FMFlag=           0 FMFlg1=           0
         NFxFlg=           0 DoJE=F BraDBF=T KetDBF=T FulRan=T
         wScrn=  0.000000 ICntrl=     600 IOpCl=  3 I1Cent=           6 NGrid=           0
         NMat0=    1 NMatS0=     85 NMatT0=    0 NMatD0=    1 NMtDS0=    0 NMtDT0=    0
 Petite list used in FoFCou.
 DBF EigKep=  2.10D-04 EigRej= -1.00D+00
 NDBF=     71  NBFD=    71
 NRank=    71 NBFDU=    71
 S*AI*S=  4.32323357598    
 Precomputing XC quadrature grid using
 IXCGrd= 4 IRadAn=           5 IRanWt=          -1 IRanGd=           0 AccXCQ= 0.00D+00.
 Generated NRdTot=       0 NPtTot=           0 NUsed=           0 NTot=          32
 NSgBfM=    66    66    66    66    66 MxSgAt=     3 MxSgA2=     3.
 Leave Link  302 at Tue Jan  9 19:10:00 2018, MaxMem=  4194304000 cpu:         1.9
 (Enter /home/chemsoft/gaussian/g09e01/g09/l303.exe)
 DipDrv:  MaxL=1.
 Leave Link  303 at Tue Jan  9 19:10:00 2018, MaxMem=  4194304000 cpu:         0.6
 (Enter /home/chemsoft/gaussian/g09e01/g09/l401.exe)
 Initial guess from the checkpoint file:  "h2o.df-bp86-d3.def2tzvpp.freq.chk"
 B after Tr=     0.000000   -0.000000   -0.000000
         Rot=    1.000000    0.000000    0.000000    0.000000 Ang=   0.00 deg.
 Guess basis will be translated and rotated to current coordinates.
 Recovered     1 saved fitting vectors from chk file.
 JPrj=2 DoOrth=T DoCkMO=T.
 Initial guess orbital symmetries:
       Occupied  (A1) (A1) (B2) (A1) (B1)
       Virtual   (A1) (B2) (B2) (A1) (A1) (B1) (B2) (A1) (A1) (A2)
                 (B1) (B2) (A1) (B2) (B2) (B1) (A2) (A1) (A1) (A1)
                 (B2) (B1) (A1) (B1) (A1) (B2) (A1) (A2) (B2) (B2)
                 (A1) (A2) (B1) (A2) (A1) (B1) (B2) (B2) (A1) (B2)
                 (A1) (B1) (A1) (B1) (A2) (B2) (B1) (A1) (A2) (A1)
                 (B2) (B2) (A1) (A1)
 The electronic state of the initial guess is 1-A1.
 Leave Link  401 at Tue Jan  9 19:10:00 2018, MaxMem=  4194304000 cpu:         1.0
 (Enter /home/chemsoft/gaussian/g09e01/g09/l502.exe)
 Closed shell SCF:
 Density fitting will be used, IDenFit= 2 NucTyp=  0.
 Using DIIS extrapolation, IDIIS=  1040.
 Integral symmetry usage will be decided dynamically.
 IVT=      268346 IEndB=      268346 NGot=  4194304000 MDV=  4194291077
 LenX=  4194291077 LenY=  4194286280
 Requested convergence on RMS density matrix=1.00D-08 within 500 cycles.
 Requested convergence on MAX density matrix=1.00D-06.
 Requested convergence on             energy=1.00D-06.
 No special actions if energy rises.
 Fock matrices will be formed incrementally for  20 cycles.

 Cycle   1  Pass 1  IDiag  1:
 FoFCou: FMM=F IPFlag=           0 FMFlag=      100000 FMFlg1=           0
         NFxFlg=           0 DoJE=T BraDBF=T KetDBF=F FulRan=T
         wScrn=  0.000000 ICntrl=     500 IOpCl=  0 I1Cent=           5 NGrid=           0
         NMat0=    1 NMatS0=      1 NMatT0=    0 NMatD0=    1 NMtDS0=    0 NMtDT0=    0
 Petite list used in FoFCou.
 FoFJK:  IHMeth= 1 ICntrl=     500 DoSepK=F KAlg= 0 I1Cent=   4 FoldK=F
 IRaf= 990000000 NMat=   1 IRICut=       1 DoRegI=T DoRafI=F ISym2E= 1.
 Inv3:  Mode=1 IEnd=      451632.
 Iteration    1 A*A^-1 deviation from unit magnitude is 2.44D-15 for     63.
 Iteration    1 A*A^-1 deviation from orthogonality  is 2.32D-15 for    259     31.
 Iteration    1 A^-1*A deviation from unit magnitude is 2.44D-15 for    168.
 Iteration    1 A^-1*A deviation from orthogonality  is 1.00D-15 for    192     93.
 E= -76.4698972995291    
 DIIS: error= 1.13D-09 at cycle   1 NSaved=   1.
 NSaved= 1 IEnMin= 1 EnMin= -76.4698972995291     IErMin= 1 ErrMin= 1.13D-09
 ErrMax= 1.13D-09  0.00D+00 EMaxC= 1.00D-01 BMatC= 1.95D-17 BMatP= 1.95D-17
 IDIUse=1 WtCom= 1.00D+00 WtEn= 0.00D+00
 Coeff-Com:  0.100D+01
 Coeff:      0.100D+01
 Gap=     0.269 Goal=   None    Shift=    0.000
 RMSDP=8.11D-11 MaxDP=1.18D-09              OVMax= 2.48D-09

 Error on total polarization charges =  0.00236
 SCF Done:  E(RB-P86) =  -76.4698972995     A.U. after    1 cycles
            NFock=  1  Conv=0.81D-10     -V/T= 2.0037
 KE= 7.618605061072D+01 PE=-1.990568193987D+02 EE= 3.733051884791D+01
 Leave Link  502 at Tue Jan  9 19:10:02 2018, MaxMem=  4194304000 cpu:        14.9
 (Enter /home/chemsoft/gaussian/g09e01/g09/l508.exe)
 QCSCF skips out because SCF is already converged.
 Leave Link  508 at Tue Jan  9 19:10:02 2018, MaxMem=  4194304000 cpu:         0.0
 (Enter /home/chemsoft/gaussian/g09e01/g09/l801.exe)
 Range of M.O.s used for correlation:     1    59
 NBasis=    59 NAE=     5 NBE=     5 NFC=     0 NFV=     0
 NROrb=     59 NOA=     5 NOB=     5 NVA=    54 NVB=    54
 Leave Link  801 at Tue Jan  9 19:10:02 2018, MaxMem=  4194304000 cpu:         0.1
 (Enter /home/chemsoft/gaussian/g09e01/g09/l1101.exe)
 Using compressed storage, NAtomX=     3.
 Will process      4 centers per pass.
   4 Symmetry operations used in ECPInt.
 ECPInt:  NShTT=     276 NPrTT=     694 LenC2=     277 LenP2D=     681.
 LDataN:  DoStor=T MaxTD1= 7 Len=  274
 R6Disp: Adding Grimme-D3 dispersion energy 1st derivatives to the gradient.
 Leave Link 1101 at Tue Jan  9 19:10:02 2018, MaxMem=  4194304000 cpu:         1.7
 (Enter /home/chemsoft/gaussian/g09e01/g09/l1102.exe)
 Symmetrizing basis deriv contribution to polar:
 IMax=3 JMax=2 DiffMx= 0.00D+00
 Leave Link 1102 at Tue Jan  9 19:10:03 2018, MaxMem=  4194304000 cpu:         0.3
 (Enter /home/chemsoft/gaussian/g09e01/g09/l1110.exe)
 Forming Jx(Pfit) for the SCF density, NAtomX=     3.
 Integral derivatives from FoFJK, PRISM(SPDF).
 Do as many integral derivatives as possible in FoFJK.
 G2DrvN: MDV=    4194303872.
 G2DrvN: will do     4 centers at a time, making    1 passes.
 Calling FoFCou, ICntrl=  3507 FMM=F I1Cent=   4 AccDes= 0.00D+00.
 FoFJK:  IHMeth= 1 ICntrl=    3507 DoSepK=F KAlg= 0 I1Cent=   4 FoldK=F
 IRaf=         0 NMat=   1 IRICut=       1 DoRegI=T DoRafI=F ISym2E= 1.
 FoFCou: FMM=F IPFlag=           0 FMFlag=      100000 FMFlg1=           0
         NFxFlg=           0 DoJE=F BraDBF=F KetDBF=T FulRan=T
         wScrn=  0.000000 ICntrl=    3507 IOpCl=  0 I1Cent=           4 NGrid=           0
         NMat0=    1 NMatS0=      1 NMatT0=    0 NMatD0=    1 NMtDS0=    0 NMtDT0=    0
 Petite list used in FoFCou.
 NEqPCM:  Using equilibrium solvation (IEInf=0, Eps=   2.3741, EpsInf=   2.2383)
 G2PCM: DoFxE=T DoFxN=T DoGrad=T DoDP/DQ/DG/TGxP=FFFF NFrqRd=   0 IEInf=0 SqF1=F DoCFld=F IF1Alg=4.
 GePol: Maximum number of non-zero 1st derivatives   =     262
 Forming Jx(P-Pfit) for the SCF density, NAtomX=     3.
 Integral derivatives from FoFJK, PRISM(SPDF).
 Do as many integral derivatives as possible in FoFJK.
 G2DrvN: MDV=    4194303872.
 G2DrvN: will do     4 centers at a time, making    1 passes.
 Calling FoFCou, ICntrl=  3507 FMM=F I1Cent=1004 AccDes= 0.00D+00.
 FxDFit:  IM=    1 NDo=   12.
 End of G2Drv F.D. properties file   721 does not exist.
 End of G2Drv F.D. properties file   722 does not exist.
 End of G2Drv F.D. properties file   788 does not exist.
 Leave Link 1110 at Tue Jan  9 19:10:05 2018, MaxMem=  4194304000 cpu:        18.8
 (Enter /home/chemsoft/gaussian/g09e01/g09/l1002.exe)
 Minotr:  Closed shell wavefunction.
          IDoAtm=111
 NEqPCM:  Using equilibrium solvation (IEInf=0, Eps=   2.3741, EpsInf=   2.2383)
          Direct CPHF calculation.
          Differentiating once with respect to electric field.
                with respect to dipole field.
          Differentiating once with respect to nuclear coordinates.
          Using symmetry in CPHF.
          Requested convergence is 1.0D-08 RMS, and 1.0D-07 maximum.
          Secondary convergence is 1.0D-12 RMS, and 1.0D-12 maximum.
          NewPWx=T KeepS1=F KeepF1=F KeepIn=T MapXYZ=F SortEE=F KeepMc=T.
          MDV=    4194303907 using IRadAn=       1.
 Generate precomputed XC quadrature information.
          Solving linear equations simultaneously, MaxMat=       0.
 FoFCou: FMM=F IPFlag=           0 FMFlag=      100000 FMFlg1=           0
         NFxFlg=           0 DoJE=F BraDBF=T KetDBF=F FulRan=T
         wScrn=  0.000000 ICntrl=     500 IOpCl=  0 I1Cent=           5 NGrid=           0
         NMat0=    9 NMatS0=      9 NMatT0=    0 NMatD0=    9 NMtDS0=    0 NMtDT0=    0
 Integrals replicated using symmetry in FoFCou.
 FoFJK:  IHMeth= 1 ICntrl=     500 DoSepK=F KAlg= 0 I1Cent=   4 FoldK=F
 IRaf= 990000000 NMat=   9 IRICut=       1 DoRegI=T DoRafI=F ISym2E= 2.
          There are     9 degrees of freedom in the 1st order CPHF.  IDoFFX=4 NUNeed=     9.
      9 vectors produced by pass  0 Test12= 3.00D-15 1.11D-08 XBig12= 5.27D+00 1.62D+00.
 AX will form     9 AO Fock derivatives at one time.
      9 vectors produced by pass  1 Test12= 3.00D-15 1.11D-08 XBig12= 1.23D+00 5.23D-01.
      9 vectors produced by pass  2 Test12= 3.00D-15 1.11D-08 XBig12= 1.00D-02 3.39D-02.
      9 vectors produced by pass  3 Test12= 3.00D-15 1.11D-08 XBig12= 3.30D-05 3.04D-03.
      9 vectors produced by pass  4 Test12= 3.00D-15 1.11D-08 XBig12= 2.82D-08 8.92D-05.
      4 vectors produced by pass  5 Test12= 3.00D-15 1.11D-08 XBig12= 8.23D-12 8.64D-07.
      1 vectors produced by pass  6 Test12= 3.00D-15 1.11D-08 XBig12= 5.31D-15 2.08D-08.
 InvSVY:  IOpt=1 It=  1 EMax= 4.44D-16
 Solved reduced A of dimension    50 with     9 vectors.
 FullF1:  Do perturbations    1 to     9.
 Isotropic polarizability for W=    0.000000        8.17 Bohr**3.
 End of Minotr F.D. properties file   721 does not exist.
 End of Minotr F.D. properties file   722 does not exist.
 End of Minotr F.D. properties file   788 does not exist.
 Leave Link 1002 at Tue Jan  9 19:10:09 2018, MaxMem=  4194304000 cpu:        26.7
 (Enter /home/chemsoft/gaussian/g09e01/g09/l601.exe)
 Copying SCF densities to generalized density rwf, IOpCl= 0 IROHF=0.

 **********************************************************************

            Population analysis using the SCF density.

 **********************************************************************

 Orbital symmetries:
       Occupied  (A1) (A1) (B2) (A1) (B1)
       Virtual   (A1) (B2) (B2) (A1) (A1) (B1) (B2) (A1) (A1) (A2)
                 (B1) (B2) (A1) (B2) (B2) (B1) (A2) (A1) (A1) (A1)
                 (B2) (B1) (A1) (B1) (A1) (B2) (A1) (A2) (B2) (B2)
                 (A1) (A2) (B1) (A2) (A1) (B1) (B2) (B2) (A1) (B2)
                 (A1) (B1) (A1) (B1) (A2) (B2) (B1) (A1) (A2) (A1)
                 (B2) (B2) (A1) (A1)
 The electronic state is 1-A1.
 Alpha  occ. eigenvalues --  -18.76849  -0.92520  -0.47786  -0.34260  -0.26448
 Alpha virt. eigenvalues --    0.00499   0.08254   0.32324   0.36455   0.37610
 Alpha virt. eigenvalues --    0.38921   0.50091   0.52405   0.60161   0.63619
 Alpha virt. eigenvalues --    0.72263   0.96183   1.11837   1.17423   1.66710
 Alpha virt. eigenvalues --    1.68069   1.70906   1.76376   1.80221   2.00636
 Alpha virt. eigenvalues --    2.28497   2.43879   2.60714   2.97720   3.07444
 Alpha virt. eigenvalues --    3.17244   3.18570   3.18649   3.27311   3.43381
 Alpha virt. eigenvalues --    3.50474   3.55751   3.55767   3.89839   3.98161
 Alpha virt. eigenvalues --    3.98871   4.06288   4.48784   4.50981   4.66007
 Alpha virt. eigenvalues --    4.84398   5.46326   5.99191   6.23520   6.26023
 Alpha virt. eigenvalues --    6.38178   6.39383   6.45808   6.63277   6.70273
 Alpha virt. eigenvalues --    7.21997   7.22738   7.45826  43.08304
     Molecular Orbital Coefficients:
                           1         2         3         4         5
                        (A1)--O   (A1)--O   (B2)--O   (A1)--O   (B1)--O
     Eigenvalues --   -18.76849  -0.92520  -0.47786  -0.34260  -0.26448
   1 1   O  1S          0.43577  -0.09803   0.00000  -0.03757   0.00000
   2        2S          0.63842  -0.22891   0.00000  -0.08914   0.00000
   3        3S          0.03623   0.34170   0.00000   0.13535   0.00000
   4        4S         -0.02150   0.40843   0.00000   0.20720   0.00000
   5        5S          0.00709   0.15162   0.00000   0.25521   0.00000
   6        6PX         0.00000   0.00000   0.00000   0.00000   0.47545
   7        6PY         0.00000   0.00000   0.38909   0.00000   0.00000
   8        6PZ        -0.00204  -0.09113   0.00000   0.41553   0.00000
   9        7PX         0.00000   0.00000   0.00000   0.00000   0.37043
  10        7PY         0.00000   0.00000   0.26863   0.00000   0.00000
  11        7PZ         0.00212  -0.06276   0.00000   0.30360   0.00000
  12        8PX         0.00000   0.00000   0.00000   0.00000   0.32615
  13        8PY         0.00000   0.00000   0.11637   0.00000   0.00000
  14        8PZ        -0.00045  -0.00853   0.00000   0.21726   0.00000
  15        9D 0        0.00008   0.00147   0.00000  -0.00570   0.00000
  16        9D+1        0.00000   0.00000   0.00000   0.00000  -0.00519
  17        9D-1        0.00000   0.00000  -0.01102   0.00000   0.00000
  18        9D+2       -0.00047  -0.00395   0.00000   0.00176   0.00000
  19        9D-2        0.00000   0.00000   0.00000   0.00000   0.00000
  20       10D 0       -0.00024   0.00357   0.00000  -0.01487   0.00000
  21       10D+1        0.00000   0.00000   0.00000   0.00000  -0.01700
  22       10D-1        0.00000   0.00000  -0.01038   0.00000   0.00000
  23       10D+2        0.00055  -0.00616   0.00000  -0.00144   0.00000
  24       10D-2        0.00000   0.00000   0.00000   0.00000   0.00000
  25       11F 0        0.00006  -0.00025   0.00000   0.00090   0.00000
  26       11F+1        0.00000   0.00000   0.00000   0.00000   0.00131
  27       11F-1        0.00000   0.00000  -0.00095   0.00000   0.00000
  28       11F+2        0.00002   0.00068   0.00000  -0.00154   0.00000
  29       11F-2        0.00000   0.00000   0.00000   0.00000   0.00000
  30       11F+3        0.00000   0.00000   0.00000   0.00000  -0.00313
  31       11F-3        0.00000   0.00000  -0.00192   0.00000   0.00000
  32 2   H  1S          0.00052   0.09485   0.14944  -0.08756   0.00000
  33        2S          0.00122   0.08453   0.21356  -0.14485   0.00000
  34        3S         -0.00116   0.00650   0.06458  -0.04307   0.00000
  35        4PX         0.00000   0.00000   0.00000   0.00000   0.01114
  36        4PY         0.00015  -0.01246  -0.01007   0.00997   0.00000
  37        4PZ        -0.00023   0.00866   0.01397   0.00129   0.00000
  38        5PX         0.00000   0.00000   0.00000   0.00000   0.03312
  39        5PY        -0.00066  -0.01268  -0.01270   0.02204   0.00000
  40        5PZ         0.00049   0.00656   0.02032   0.01592   0.00000
  41        6D 0       -0.00012   0.00000   0.00236   0.00312   0.00000
  42        6D+1        0.00000   0.00000   0.00000   0.00000   0.00332
  43        6D-1        0.00078  -0.00387  -0.00596   0.00069   0.00000
  44        6D+2        0.00039  -0.00303  -0.00261   0.00395   0.00000
  45        6D-2        0.00000   0.00000   0.00000   0.00000  -0.00503
  46 3   H  1S          0.00052   0.09485  -0.14944  -0.08756   0.00000
  47        2S          0.00122   0.08453  -0.21356  -0.14485   0.00000
  48        3S         -0.00116   0.00650  -0.06458  -0.04307   0.00000
  49        4PX         0.00000   0.00000   0.00000   0.00000   0.01114
  50        4PY        -0.00015   0.01246  -0.01007  -0.00997   0.00000
  51        4PZ        -0.00023   0.00866  -0.01397   0.00129   0.00000
  52        5PX         0.00000   0.00000   0.00000   0.00000   0.03312
  53        5PY         0.00066   0.01268  -0.01270  -0.02204   0.00000
  54        5PZ         0.00049   0.00656  -0.02032   0.01592   0.00000
  55        6D 0       -0.00012   0.00000  -0.00236   0.00312   0.00000
  56        6D+1        0.00000   0.00000   0.00000   0.00000   0.00332
  57        6D-1       -0.00078   0.00387  -0.00596  -0.00069   0.00000
  58        6D+2        0.00039  -0.00303   0.00261   0.00395   0.00000
  59        6D-2        0.00000   0.00000   0.00000   0.00000   0.00503
                           6         7         8         9        10
                        (A1)--V   (B2)--V   (B2)--V   (A1)--V   (A1)--V
     Eigenvalues --     0.00499   0.08254   0.32324   0.36455   0.37610
   1 1   O  1S         -0.03684   0.00000   0.00000  -0.00470   0.03483
   2        2S         -0.09026   0.00000   0.00000  -0.00502   0.07851
   3        3S          0.16882   0.00000   0.00000  -0.14107  -0.00806
   4        4S          0.16911   0.00000   0.00000   0.75842  -0.80890
   5        5S          1.22715   0.00000   0.00000   1.78658  -0.13873
   6        6PX         0.00000   0.00000   0.00000   0.00000   0.00000
   7        6PY         0.00000  -0.27914  -0.11538   0.00000   0.00000
   8        6PZ        -0.17078   0.00000   0.00000   0.35030   0.05001
   9        7PX         0.00000   0.00000   0.00000   0.00000   0.00000
  10        7PY         0.00000  -0.24368  -0.27067   0.00000   0.00000
  11        7PZ        -0.19804   0.00000   0.00000   0.20246   0.10925
  12        8PX         0.00000   0.00000   0.00000   0.00000   0.00000
  13        8PY         0.00000  -0.70462  -0.95743   0.00000   0.00000
  14        8PZ        -0.40952   0.00000   0.00000  -1.73870   0.81374
  15        9D 0        0.00064   0.00000   0.00000  -0.01271  -0.00368
  16        9D+1        0.00000   0.00000   0.00000   0.00000   0.00000
  17        9D-1        0.00000  -0.00394  -0.02473   0.00000   0.00000
  18        9D+2        0.00344   0.00000   0.00000   0.00579  -0.01693
  19        9D-2        0.00000   0.00000   0.00000   0.00000   0.00000
  20       10D 0        0.01641   0.00000   0.00000   0.05274   0.00037
  21       10D+1        0.00000   0.00000   0.00000   0.00000   0.00000
  22       10D-1        0.00000   0.01231   0.07154   0.00000   0.00000
  23       10D+2       -0.01474   0.00000   0.00000  -0.14477   0.02995
  24       10D-2        0.00000   0.00000   0.00000   0.00000   0.00000
  25       11F 0       -0.00031   0.00000   0.00000   0.00617  -0.00883
  26       11F+1        0.00000   0.00000   0.00000   0.00000   0.00000
  27       11F-1        0.00000   0.00109  -0.00913   0.00000   0.00000
  28       11F+2        0.00154   0.00000   0.00000   0.01698  -0.01578
  29       11F-2        0.00000   0.00000   0.00000   0.00000   0.00000
  30       11F+3        0.00000   0.00000   0.00000   0.00000   0.00000
  31       11F-3        0.00000   0.00132   0.01027   0.00000   0.00000
  32 2   H  1S         -0.04434   0.04936   0.12911   0.06644   0.11881
  33        2S         -0.27635   0.20936   1.31062  -0.77817   1.37332
  34        3S         -0.89549   1.51767  -0.74514  -0.67131  -0.63257
  35        4PX         0.00000   0.00000   0.00000   0.00000   0.00000
  36        4PY        -0.01560   0.01306  -0.03659   0.01454  -0.02572
  37        4PZ         0.00821  -0.01474   0.01911  -0.01466   0.01999
  38        5PX         0.00000   0.00000   0.00000   0.00000   0.00000
  39        5PY         0.05083  -0.02519  -0.02792   0.49802   0.09162
  40        5PZ        -0.02536   0.01920  -0.03191  -0.26778   0.11716
  41        6D 0       -0.00056  -0.00239  -0.00303   0.00451   0.01069
  42        6D+1        0.00000   0.00000   0.00000   0.00000   0.00000
  43        6D-1        0.00225  -0.00252  -0.02113   0.03530  -0.01907
  44        6D+2        0.00163  -0.00310  -0.00900   0.02781  -0.01404
  45        6D-2        0.00000   0.00000   0.00000   0.00000   0.00000
  46 3   H  1S         -0.04434  -0.04936  -0.12911   0.06644   0.11881
  47        2S         -0.27635  -0.20936  -1.31062  -0.77817   1.37332
  48        3S         -0.89549  -1.51767   0.74514  -0.67131  -0.63257
  49        4PX         0.00000   0.00000   0.00000   0.00000   0.00000
  50        4PY         0.01560   0.01306  -0.03659  -0.01454   0.02572
  51        4PZ         0.00821   0.01474  -0.01911  -0.01466   0.01999
  52        5PX         0.00000   0.00000   0.00000   0.00000   0.00000
  53        5PY        -0.05083  -0.02519  -0.02792  -0.49802  -0.09162
  54        5PZ        -0.02536  -0.01920   0.03191  -0.26778   0.11716
  55        6D 0       -0.00056   0.00239   0.00303   0.00451   0.01069
  56        6D+1        0.00000   0.00000   0.00000   0.00000   0.00000
  57        6D-1       -0.00225  -0.00252  -0.02113  -0.03530   0.01907
  58        6D+2        0.00163   0.00310   0.00900   0.02781  -0.01404
  59        6D-2        0.00000   0.00000   0.00000   0.00000   0.00000
                          11        12        13        14        15
                        (B1)--V   (B2)--V   (A1)--V   (A1)--V   (A2)--V
     Eigenvalues --     0.38921   0.50091   0.52405   0.60161   0.63619
   1 1   O  1S          0.00000   0.00000   0.04668   0.01529   0.00000
   2        2S          0.00000   0.00000   0.10035   0.03259   0.00000
   3        3S          0.00000   0.00000  -0.03167  -0.04905   0.00000
   4        4S          0.00000   0.00000  -1.30148  -0.38068   0.00000
   5        5S          0.00000   0.00000   4.89890   3.81962   0.00000
   6        6PX        -0.33048   0.00000   0.00000   0.00000   0.00000
   7        6PY         0.00000  -0.35138   0.00000   0.00000   0.00000
   8        6PZ         0.00000   0.00000   0.05426  -0.07588   0.00000
   9        7PX        -0.68200   0.00000   0.00000   0.00000   0.00000
  10        7PY         0.00000  -0.07066   0.00000   0.00000   0.00000
  11        7PZ         0.00000   0.00000  -0.31937  -0.65753   0.00000
  12        8PX         1.24932   0.00000   0.00000   0.00000   0.00000
  13        8PY         0.00000   2.53019   0.00000   0.00000   0.00000
  14        8PZ         0.00000   0.00000  -0.88250  -1.79835   0.00000
  15        9D 0        0.00000   0.00000   0.00940  -0.03172   0.00000
  16        9D+1        0.00704   0.00000   0.00000   0.00000   0.00000
  17        9D-1        0.00000   0.01859   0.00000   0.00000   0.00000
  18        9D+2        0.00000   0.00000   0.02303   0.00179   0.00000
  19        9D-2        0.00000   0.00000   0.00000   0.00000   0.02496
  20       10D 0        0.00000   0.00000  -0.00664   0.08594   0.00000
  21       10D+1       -0.01149   0.00000   0.00000   0.00000   0.00000
  22       10D-1        0.00000  -0.26921   0.00000   0.00000   0.00000
  23       10D+2        0.00000   0.00000  -0.14415  -0.04777   0.00000
  24       10D-2        0.00000   0.00000   0.00000   0.00000   0.01530
  25       11F 0        0.00000   0.00000   0.01241  -0.00287   0.00000
  26       11F+1       -0.00040   0.00000   0.00000   0.00000   0.00000
  27       11F-1        0.00000   0.01543   0.00000   0.00000   0.00000
  28       11F+2        0.00000   0.00000   0.01761   0.02180   0.00000
  29       11F-2        0.00000   0.00000   0.00000   0.00000   0.01228
  30       11F+3        0.00128   0.00000   0.00000   0.00000   0.00000
  31       11F-3        0.00000  -0.01174   0.00000   0.00000   0.00000
  32 2   H  1S          0.00000   0.06470   0.02726   0.00754   0.00000
  33        2S          0.00000  -0.77847  -1.19101  -1.82009   0.00000
  34        3S          0.00000  -1.90906  -1.02385  -0.44533   0.00000
  35        4PX         0.00605   0.00000   0.00000   0.00000  -0.04414
  36        4PY         0.00000   0.02969   0.02113   0.00831   0.00000
  37        4PZ         0.00000  -0.01634  -0.00106  -0.04379   0.00000
  38        5PX        -0.03018   0.00000   0.00000   0.00000   0.81216
  39        5PY         0.00000   0.48343   0.20476   0.80124   0.00000
  40        5PZ         0.00000  -0.43151  -0.56259   0.35086   0.00000
  41        6D 0        0.00000  -0.00140  -0.01836   0.02893   0.00000
  42        6D+1       -0.00121   0.00000   0.00000   0.00000   0.02261
  43        6D-1        0.00000   0.04792   0.03820   0.01494   0.00000
  44        6D+2        0.00000   0.02982   0.01587   0.05577   0.00000
  45        6D-2        0.00223   0.00000   0.00000   0.00000  -0.01022
  46 3   H  1S          0.00000  -0.06470   0.02726   0.00754   0.00000
  47        2S          0.00000   0.77847  -1.19101  -1.82009   0.00000
  48        3S          0.00000   1.90906  -1.02385  -0.44533   0.00000
  49        4PX         0.00605   0.00000   0.00000   0.00000   0.04414
  50        4PY         0.00000   0.02969  -0.02113  -0.00831   0.00000
  51        4PZ         0.00000   0.01634  -0.00106  -0.04379   0.00000
  52        5PX        -0.03018   0.00000   0.00000   0.00000  -0.81216
  53        5PY         0.00000   0.48343  -0.20476  -0.80124   0.00000
  54        5PZ         0.00000   0.43151  -0.56259   0.35086   0.00000
  55        6D 0        0.00000   0.00140  -0.01836   0.02893   0.00000
  56        6D+1       -0.00121   0.00000   0.00000   0.00000  -0.02261
  57        6D-1        0.00000   0.04792  -0.03820  -0.01494   0.00000
  58        6D+2        0.00000  -0.02982   0.01587   0.05577   0.00000
  59        6D-2       -0.00223   0.00000   0.00000   0.00000  -0.01022
                          16        17        18        19        20
                        (B1)--V   (B2)--V   (A1)--V   (B2)--V   (B2)--V
     Eigenvalues --     0.72263   0.96183   1.11837   1.17423   1.66710
   1 1   O  1S          0.00000   0.00000  -0.02846   0.00000   0.00000
   2        2S          0.00000   0.00000  -0.05462   0.00000   0.00000
   3        3S          0.00000   0.00000  -0.44818   0.00000   0.00000
   4        4S          0.00000   0.00000   3.88310   0.00000   0.00000
   5        5S          0.00000   0.00000   3.74425   0.00000   0.00000
   6        6PX        -0.07366   0.00000   0.00000   0.00000   0.00000
   7        6PY         0.00000   0.06047   0.00000  -0.18871  -0.05167
   8        6PZ         0.00000   0.00000  -0.16550   0.00000   0.00000
   9        7PX        -0.22879   0.00000   0.00000   0.00000   0.00000
  10        7PY         0.00000   0.46789   0.00000  -2.10560  -2.60183
  11        7PZ         0.00000   0.00000  -1.87287   0.00000   0.00000
  12        8PX        -0.86609   0.00000   0.00000   0.00000   0.00000
  13        8PY         0.00000   1.48141   0.00000  -0.94304  -1.98463
  14        8PZ         0.00000   0.00000  -0.92976   0.00000   0.00000
  15        9D 0        0.00000   0.00000   0.00074   0.00000   0.00000
  16        9D+1       -0.02091   0.00000   0.00000   0.00000   0.00000
  17        9D-1        0.00000   0.00133   0.00000  -0.01814   0.00097
  18        9D+2        0.00000   0.00000   0.01290   0.00000   0.00000
  19        9D-2        0.00000   0.00000   0.00000   0.00000   0.00000
  20       10D 0        0.00000   0.00000   0.04343   0.00000   0.00000
  21       10D+1       -0.04672   0.00000   0.00000   0.00000   0.00000
  22       10D-1        0.00000  -0.10175   0.00000   0.31244   1.81356
  23       10D+2        0.00000   0.00000  -0.21298   0.00000   0.00000
  24       10D-2        0.00000   0.00000   0.00000   0.00000   0.00000
  25       11F 0        0.00000   0.00000   0.02832   0.00000   0.00000
  26       11F+1       -0.00380   0.00000   0.00000   0.00000   0.00000
  27       11F-1        0.00000   0.00308   0.00000  -0.02352  -0.11633
  28       11F+2        0.00000   0.00000   0.06410   0.00000   0.00000
  29       11F-2        0.00000   0.00000   0.00000   0.00000   0.00000
  30       11F+3        0.01411   0.00000   0.00000   0.00000   0.00000
  31       11F-3        0.00000  -0.01209   0.00000   0.02657   0.09408
  32 2   H  1S          0.00000   0.00295  -0.02899   0.12180  -0.41427
  33        2S          0.00000  -0.90784  -2.97082   2.19515   4.47593
  34        3S          0.00000  -0.29342  -0.63423   1.01403   0.28417
  35        4PX        -0.05567   0.00000   0.00000   0.00000   0.00000
  36        4PY         0.00000   0.05786   0.03451  -0.00096  -0.16916
  37        4PZ         0.00000   0.03367  -0.01681   0.01226   0.17251
  38        5PX         0.94728   0.00000   0.00000   0.00000   0.00000
  39        5PY         0.00000  -0.50701   1.86760  -1.90437  -1.77287
  40        5PZ         0.00000  -1.07496  -1.46580   1.34534   1.24106
  41        6D 0        0.00000  -0.01523  -0.02007   0.00005   0.00629
  42        6D+1        0.00122   0.00000   0.00000   0.00000   0.00000
  43        6D-1        0.00000   0.02350   0.14467  -0.14279  -0.24909
  44        6D+2        0.00000   0.01242   0.11583  -0.08001  -0.13164
  45        6D-2       -0.03677   0.00000   0.00000   0.00000   0.00000
  46 3   H  1S          0.00000  -0.00295  -0.02899  -0.12180   0.41427
  47        2S          0.00000   0.90784  -2.97082  -2.19515  -4.47593
  48        3S          0.00000   0.29342  -0.63423  -1.01403  -0.28417
  49        4PX        -0.05567   0.00000   0.00000   0.00000   0.00000
  50        4PY         0.00000   0.05786  -0.03451  -0.00096  -0.16916
  51        4PZ         0.00000  -0.03367  -0.01681  -0.01226  -0.17251
  52        5PX         0.94728   0.00000   0.00000   0.00000   0.00000
  53        5PY         0.00000  -0.50701  -1.86760  -1.90437  -1.77287
  54        5PZ         0.00000   1.07496  -1.46580  -1.34534  -1.24106
  55        6D 0        0.00000   0.01523  -0.02007  -0.00005  -0.00629
  56        6D+1        0.00122   0.00000   0.00000   0.00000   0.00000
  57        6D-1        0.00000   0.02350  -0.14467  -0.14279  -0.24909
  58        6D+2        0.00000  -0.01242   0.11583   0.08001   0.13164
  59        6D-2        0.03677   0.00000   0.00000   0.00000   0.00000
                          21        22        23        24        25
                        (B1)--V   (A2)--V   (A1)--V   (A1)--V   (A1)--V
     Eigenvalues --     1.68069   1.70906   1.76376   1.80221   2.00636
   1 1   O  1S          0.00000   0.00000  -0.00084  -0.00443   0.03083
   2        2S          0.00000   0.00000   0.01134  -0.01256   0.10427
   3        3S          0.00000   0.00000  -0.59621   0.05634  -0.99101
   4        4S          0.00000   0.00000   3.05509  -0.10662   2.98447
   5        5S          0.00000   0.00000   4.75209   2.23829   0.98080
   6        6PX        -0.05316   0.00000   0.00000   0.00000   0.00000
   7        6PY         0.00000   0.00000   0.00000   0.00000   0.00000
   8        6PZ         0.00000   0.00000  -0.12935  -0.21640   0.42029
   9        7PX        -0.09121   0.00000   0.00000   0.00000   0.00000
  10        7PY         0.00000   0.00000   0.00000   0.00000   0.00000
  11        7PZ         0.00000   0.00000  -1.48239  -0.13094  -1.54000
  12        8PX        -0.61746   0.00000   0.00000   0.00000   0.00000
  13        8PY         0.00000   0.00000   0.00000   0.00000   0.00000
  14        8PZ         0.00000   0.00000  -1.65266  -1.33172  -0.61058
  15        9D 0        0.00000   0.00000   0.00036   0.00606   0.00084
  16        9D+1       -0.00209   0.00000   0.00000   0.00000   0.00000
  17        9D-1        0.00000   0.00000   0.00000   0.00000   0.00000
  18        9D+2        0.00000   0.00000  -0.00782   0.00430  -0.01735
  19        9D-2        0.00000  -0.00147   0.00000   0.00000   0.00000
  20       10D 0        0.00000   0.00000  -0.14202   1.20993   0.53115
  21       10D+1        1.14632   0.00000   0.00000   0.00000   0.00000
  22       10D-1        0.00000   0.00000   0.00000   0.00000   0.00000
  23       10D+2        0.00000   0.00000  -1.48914  -0.21591   0.14704
  24       10D-2        0.00000   1.21324   0.00000   0.00000   0.00000
  25       11F 0        0.00000   0.00000   0.06754  -0.02303   0.06781
  26       11F+1       -0.01267   0.00000   0.00000   0.00000   0.00000
  27       11F-1        0.00000   0.00000   0.00000   0.00000   0.00000
  28       11F+2        0.00000   0.00000   0.14427  -0.01637   0.16322
  29       11F-2        0.00000  -0.01417   0.00000   0.00000   0.00000
  30       11F+3       -0.00206   0.00000   0.00000   0.00000   0.00000
  31       11F-3        0.00000   0.00000   0.00000   0.00000   0.00000
  32 2   H  1S          0.00000   0.00000   0.39629  -0.12764   0.75411
  33        2S          0.00000   0.00000  -4.17679  -1.01796  -2.55552
  34        3S          0.00000   0.00000  -0.31315  -0.33120   0.31675
  35        4PX        -0.03199   0.04957   0.00000   0.00000   0.00000
  36        4PY         0.00000   0.00000   0.17411  -0.06043   0.16255
  37        4PZ         0.00000   0.00000  -0.05833  -0.03250  -0.16511
  38        5PX         0.66249  -0.61459   0.00000   0.00000   0.00000
  39        5PY         0.00000   0.00000   1.19324   0.65643   0.78312
  40        5PZ         0.00000   0.00000  -1.24273   0.27045  -0.19108
  41        6D 0        0.00000   0.00000  -0.02755   0.03762  -0.02531
  42        6D+1        0.06458   0.01770   0.00000   0.00000   0.00000
  43        6D-1        0.00000   0.00000   0.18787   0.00915   0.11003
  44        6D+2        0.00000   0.00000   0.10573  -0.01384   0.21559
  45        6D-2        0.02541   0.04891   0.00000   0.00000   0.00000
  46 3   H  1S          0.00000   0.00000   0.39629  -0.12764   0.75411
  47        2S          0.00000   0.00000  -4.17679  -1.01796  -2.55552
  48        3S          0.00000   0.00000  -0.31315  -0.33120   0.31675
  49        4PX        -0.03199  -0.04957   0.00000   0.00000   0.00000
  50        4PY         0.00000   0.00000  -0.17411   0.06043  -0.16255
  51        4PZ         0.00000   0.00000  -0.05833  -0.03250  -0.16511
  52        5PX         0.66249   0.61459   0.00000   0.00000   0.00000
  53        5PY         0.00000   0.00000  -1.19324  -0.65643  -0.78312
  54        5PZ         0.00000   0.00000  -1.24273   0.27045  -0.19108
  55        6D 0        0.00000   0.00000  -0.02755   0.03762  -0.02531
  56        6D+1        0.06458  -0.01770   0.00000   0.00000   0.00000
  57        6D-1        0.00000   0.00000  -0.18787  -0.00915  -0.11003
  58        6D+2        0.00000   0.00000   0.10573  -0.01384   0.21559
  59        6D-2       -0.02541   0.04891   0.00000   0.00000   0.00000
                          26        27        28        29        30
                        (B2)--V   (B1)--V   (A1)--V   (B1)--V   (A1)--V
     Eigenvalues --     2.28497   2.43879   2.60714   2.97720   3.07444
   1 1   O  1S          0.00000   0.00000  -0.09526   0.00000   0.04134
   2        2S          0.00000   0.00000  -0.31728   0.00000   0.14758
   3        3S          0.00000   0.00000   1.98397   0.00000  -1.42869
   4        4S          0.00000   0.00000  -2.43133   0.00000   3.88414
   5        5S          0.00000   0.00000   3.27300   0.00000   1.50571
   6        6PX         0.00000  -1.18851   0.00000   0.04808   0.00000
   7        6PY        -0.74284   0.00000   0.00000   0.00000   0.00000
   8        6PZ         0.00000   0.00000   0.83246   0.00000   0.38613
   9        7PX         0.00000   1.62652   0.00000  -0.09101   0.00000
  10        7PY         2.16907   0.00000   0.00000   0.00000   0.00000
  11        7PZ         0.00000   0.00000  -1.49955   0.00000  -1.57796
  12        8PX         0.00000  -0.54764   0.00000   0.17674   0.00000
  13        8PY        -0.43882   0.00000   0.00000   0.00000   0.00000
  14        8PZ         0.00000   0.00000  -0.29949   0.00000  -0.49289
  15        9D 0        0.00000   0.00000   0.00865   0.00000   0.03560
  16        9D+1        0.00000  -0.00271   0.00000  -0.02645   0.00000
  17        9D-1        0.00133   0.00000   0.00000   0.00000   0.00000
  18        9D+2        0.00000   0.00000  -0.01057   0.00000   0.00627
  19        9D-2        0.00000   0.00000   0.00000   0.00000   0.00000
  20       10D 0        0.00000   0.00000   0.13050   0.00000  -0.32785
  21       10D+1        0.00000  -0.09171   0.00000  -0.32585   0.00000
  22       10D-1        0.15316   0.00000   0.00000   0.00000   0.00000
  23       10D+2        0.00000   0.00000  -0.31465   0.00000  -0.38193
  24       10D-2        0.00000   0.00000   0.00000   0.00000   0.00000
  25       11F 0        0.00000   0.00000  -0.00396   0.00000  -0.05939
  26       11F+1        0.00000   0.00169   0.00000  -0.10753   0.00000
  27       11F-1        0.09105   0.00000   0.00000   0.00000   0.00000
  28       11F+2        0.00000   0.00000  -0.00281   0.00000   0.08701
  29       11F-2        0.00000   0.00000   0.00000   0.00000   0.00000
  30       11F+3        0.00000  -0.00207   0.00000  -0.10007   0.00000
  31       11F-3       -0.10014   0.00000   0.00000   0.00000   0.00000
  32 2   H  1S          0.64079   0.00000  -0.03035   0.00000  -0.00546
  33        2S         -1.85929   0.00000  -1.02286   0.00000  -2.15804
  34        3S          0.66220   0.00000  -0.41036   0.00000  -0.09975
  35        4PX         0.00000   0.09744   0.00000   0.18594   0.00000
  36        4PY         0.18334   0.00000  -0.03983   0.00000   0.01081
  37        4PZ        -0.11508   0.00000  -0.05192   0.00000  -0.09233
  38        5PX         0.00000  -0.21505   0.00000  -0.19172   0.00000
  39        5PY         0.51920   0.00000   0.45690   0.00000   0.97844
  40        5PZ        -0.51079   0.00000  -0.17558   0.00000  -0.78256
  41        6D 0        0.03729   0.00000  -0.00739   0.00000   0.10019
  42        6D+1        0.00000   0.00280   0.00000   0.52324   0.00000
  43        6D-1        0.22042   0.00000   0.00883   0.00000   0.52185
  44        6D+2        0.02020   0.00000  -0.00008   0.00000  -0.40394
  45        6D-2        0.00000  -0.00438   0.00000   0.37567   0.00000
  46 3   H  1S         -0.64079   0.00000  -0.03035   0.00000  -0.00546
  47        2S          1.85929   0.00000  -1.02286   0.00000  -2.15804
  48        3S         -0.66220   0.00000  -0.41036   0.00000  -0.09975
  49        4PX         0.00000   0.09744   0.00000   0.18594   0.00000
  50        4PY         0.18334   0.00000   0.03983   0.00000  -0.01081
  51        4PZ         0.11508   0.00000  -0.05192   0.00000  -0.09233
  52        5PX         0.00000  -0.21505   0.00000  -0.19172   0.00000
  53        5PY         0.51920   0.00000  -0.45690   0.00000  -0.97844
  54        5PZ         0.51079   0.00000  -0.17558   0.00000  -0.78256
  55        6D 0       -0.03729   0.00000  -0.00739   0.00000   0.10019
  56        6D+1        0.00000   0.00280   0.00000   0.52324   0.00000
  57        6D-1        0.22042   0.00000  -0.00883   0.00000  -0.52185
  58        6D+2       -0.02020   0.00000  -0.00008   0.00000  -0.40394
  59        6D-2        0.00000   0.00438   0.00000  -0.37567   0.00000
                          31        32        33        34        35
                        (B2)--V   (A1)--V   (A2)--V   (B2)--V   (B2)--V
     Eigenvalues --     3.17244   3.18570   3.18649   3.27311   3.43381
   1 1   O  1S          0.00000   0.06473   0.00000   0.00000   0.00000
   2        2S          0.00000   0.21837   0.00000   0.00000   0.00000
   3        3S          0.00000  -1.99338   0.00000   0.00000   0.00000
   4        4S          0.00000   5.32227   0.00000   0.00000   0.00000
   5        5S          0.00000   1.20703   0.00000   0.00000   0.00000
   6        6PX         0.00000   0.00000   0.00000   0.00000   0.00000
   7        6PY        -0.81610   0.00000   0.00000  -0.17686  -0.07238
   8        6PZ         0.00000   0.53876   0.00000   0.00000   0.00000
   9        7PX         0.00000   0.00000   0.00000   0.00000   0.00000
  10        7PY         3.10242   0.00000   0.00000   0.63898   0.39944
  11        7PZ         0.00000  -2.38002   0.00000   0.00000   0.00000
  12        8PX         0.00000   0.00000   0.00000   0.00000   0.00000
  13        8PY         0.55104   0.00000   0.00000   0.18751  -0.55279
  14        8PZ         0.00000  -0.25936   0.00000   0.00000   0.00000
  15        9D 0        0.00000  -0.00218   0.00000   0.00000   0.00000
  16        9D+1        0.00000   0.00000   0.00000   0.00000   0.00000
  17        9D-1       -0.08029   0.00000   0.00000  -0.08388  -0.06298
  18        9D+2        0.00000  -0.06676   0.00000   0.00000   0.00000
  19        9D-2        0.00000   0.00000   0.05695   0.00000   0.00000
  20       10D 0        0.00000   0.21573   0.00000   0.00000   0.00000
  21       10D+1        0.00000   0.00000   0.00000   0.00000   0.00000
  22       10D-1       -0.87340   0.00000   0.00000  -0.45728   0.24959
  23       10D+2        0.00000  -0.73378   0.00000   0.00000   0.00000
  24       10D-2        0.00000   0.00000   0.02739   0.00000   0.00000
  25       11F 0        0.00000   0.01866   0.00000   0.00000   0.00000
  26       11F+1        0.00000   0.00000   0.00000   0.00000   0.00000
  27       11F-1       -0.04474   0.00000   0.00000  -0.01224   0.16287
  28       11F+2        0.00000  -0.03950   0.00000   0.00000   0.00000
  29       11F-2        0.00000   0.00000  -0.13252   0.00000   0.00000
  30       11F+3        0.00000   0.00000   0.00000   0.00000   0.00000
  31       11F-3        0.05957   0.00000   0.00000  -0.05322   0.07255
  32 2   H  1S         -0.37418  -0.50068   0.00000  -0.35283  -0.00455
  33        2S         -2.22403  -2.04061   0.00000  -0.33832   0.03549
  34        3S         -0.38561  -0.17852   0.00000  -0.28421  -0.00250
  35        4PX         0.00000   0.00000   0.49504   0.00000   0.00000
  36        4PY        -0.04012  -0.17123   0.00000  -0.24786  -0.62937
  37        4PZ         0.24018   0.01851   0.00000   0.14247  -0.47340
  38        5PX         0.00000   0.00000  -0.29666   0.00000   0.00000
  39        5PY         1.32810   1.35529   0.00000   0.52177   0.63541
  40        5PZ        -1.23011  -0.96959   0.00000  -0.34234   0.28601
  41        6D 0       -0.25999  -0.09645   0.00000   0.46773  -0.22184
  42        6D+1        0.00000   0.00000  -0.37748   0.00000   0.00000
  43        6D-1        0.12525   0.20800   0.00000   0.41996   0.14475
  44        6D+2        0.38271   0.46352   0.00000  -0.12838  -0.00873
  45        6D-2        0.00000   0.00000  -0.40298   0.00000   0.00000
  46 3   H  1S          0.37418  -0.50068   0.00000   0.35283   0.00455
  47        2S          2.22403  -2.04061   0.00000   0.33832  -0.03549
  48        3S          0.38561  -0.17852   0.00000   0.28421   0.00250
  49        4PX         0.00000   0.00000  -0.49504   0.00000   0.00000
  50        4PY        -0.04012   0.17123   0.00000  -0.24786  -0.62937
  51        4PZ        -0.24018   0.01851   0.00000  -0.14247   0.47340
  52        5PX         0.00000   0.00000   0.29666   0.00000   0.00000
  53        5PY         1.32810  -1.35529   0.00000   0.52177   0.63541
  54        5PZ         1.23011  -0.96959   0.00000   0.34234  -0.28601
  55        6D 0        0.25999  -0.09645   0.00000  -0.46773   0.22184
  56        6D+1        0.00000   0.00000   0.37748   0.00000   0.00000
  57        6D-1        0.12525  -0.20800   0.00000   0.41996   0.14475
  58        6D+2       -0.38271   0.46352   0.00000   0.12838   0.00873
  59        6D-2        0.00000   0.00000  -0.40298   0.00000   0.00000
                          36        37        38        39        40
                        (A1)--V   (A2)--V   (B1)--V   (A2)--V   (A1)--V
     Eigenvalues --     3.50474   3.55751   3.55767   3.89839   3.98161
   1 1   O  1S          0.00348   0.00000   0.00000   0.00000   0.02531
   2        2S          0.01973   0.00000   0.00000   0.00000   0.11868
   3        3S         -0.09991   0.00000   0.00000   0.00000  -1.17287
   4        4S         -0.45782   0.00000   0.00000   0.00000   1.36066
   5        5S         -0.19503   0.00000   0.00000   0.00000  -0.65651
   6        6PX         0.00000   0.00000   0.14828   0.00000   0.00000
   7        6PY         0.00000   0.00000   0.00000   0.00000   0.00000
   8        6PZ        -0.04414   0.00000   0.00000   0.00000   0.23588
   9        7PX         0.00000   0.00000  -0.03339   0.00000   0.00000
  10        7PY         0.00000   0.00000   0.00000   0.00000   0.00000
  11        7PZ        -0.01214   0.00000   0.00000   0.00000  -0.09478
  12        8PX         0.00000   0.00000   0.44970   0.00000   0.00000
  13        8PY         0.00000   0.00000   0.00000   0.00000   0.00000
  14        8PZ        -0.25023   0.00000   0.00000   0.00000   0.17792
  15        9D 0       -0.01514   0.00000   0.00000   0.00000   0.05112
  16        9D+1        0.00000   0.00000  -0.03142   0.00000   0.00000
  17        9D-1        0.00000   0.00000   0.00000   0.00000   0.00000
  18        9D+2        0.01067   0.00000   0.00000   0.00000   0.11080
  19        9D-2        0.00000   0.01715   0.00000  -0.09646   0.00000
  20       10D 0        0.27096   0.00000   0.00000   0.00000  -0.51445
  21       10D+1        0.00000   0.00000  -0.00022   0.00000   0.00000
  22       10D-1        0.00000   0.00000   0.00000   0.00000   0.00000
  23       10D+2        0.17861   0.00000   0.00000   0.00000  -0.81905
  24       10D-2        0.00000  -0.23028   0.00000   0.99266   0.00000
  25       11F 0       -0.17866   0.00000   0.00000   0.00000  -0.05025
  26       11F+1        0.00000   0.00000   0.13622   0.00000   0.00000
  27       11F-1        0.00000   0.00000   0.00000   0.00000   0.00000
  28       11F+2       -0.05488   0.00000   0.00000   0.00000  -0.22886
  29       11F-2        0.00000  -0.17677   0.00000   0.07002   0.00000
  30       11F+3        0.00000   0.00000  -0.15710   0.00000   0.00000
  31       11F-3        0.00000   0.00000   0.00000   0.00000   0.00000
  32 2   H  1S          0.03836   0.00000   0.00000   0.00000  -0.19159
  33        2S          0.17679   0.00000   0.00000   0.00000  -0.18862
  34        3S          0.07162   0.00000   0.00000   0.00000   0.23625
  35        4PX         0.00000   0.68619   0.83388   0.08975   0.00000
  36        4PY        -0.33670   0.00000   0.00000   0.00000   0.42118
  37        4PZ        -0.63502   0.00000   0.00000   0.00000  -0.42275
  38        5PX         0.00000  -0.42769  -0.66677  -0.54814   0.00000
  39        5PY         0.10448   0.00000   0.00000   0.00000  -0.43728
  40        5PZ         0.69421   0.00000   0.00000   0.00000  -0.03066
  41        6D 0        0.43720   0.00000   0.00000   0.00000  -0.50281
  42        6D+1        0.00000   0.30736  -0.26472  -0.68778   0.00000
  43        6D-1       -0.22470   0.00000   0.00000   0.00000  -0.29891
  44        6D+2        0.07883   0.00000   0.00000   0.00000  -0.26780
  45        6D-2        0.00000   0.37564   0.07382   0.59297   0.00000
  46 3   H  1S          0.03836   0.00000   0.00000   0.00000  -0.19159
  47        2S          0.17679   0.00000   0.00000   0.00000  -0.18862
  48        3S          0.07162   0.00000   0.00000   0.00000   0.23625
  49        4PX         0.00000  -0.68619   0.83388  -0.08975   0.00000
  50        4PY         0.33670   0.00000   0.00000   0.00000  -0.42118
  51        4PZ        -0.63502   0.00000   0.00000   0.00000  -0.42275
  52        5PX         0.00000   0.42769  -0.66677   0.54814   0.00000
  53        5PY        -0.10448   0.00000   0.00000   0.00000   0.43728
  54        5PZ         0.69421   0.00000   0.00000   0.00000  -0.03066
  55        6D 0        0.43720   0.00000   0.00000   0.00000  -0.50281
  56        6D+1        0.00000  -0.30736  -0.26472   0.68778   0.00000
  57        6D-1        0.22470   0.00000   0.00000   0.00000   0.29891
  58        6D+2        0.07883   0.00000   0.00000   0.00000  -0.26780
  59        6D-2        0.00000   0.37564  -0.07382   0.59297   0.00000
                          41        42        43        44        45
                        (B1)--V   (B2)--V   (B2)--V   (A1)--V   (B2)--V
     Eigenvalues --     3.98871   4.06288   4.48784   4.50981   4.66007
   1 1   O  1S          0.00000   0.00000   0.00000  -0.02252   0.00000
   2        2S          0.00000   0.00000   0.00000  -0.08719   0.00000
   3        3S          0.00000   0.00000   0.00000   0.67745   0.00000
   4        4S          0.00000   0.00000   0.00000  -0.33235   0.00000
   5        5S          0.00000   0.00000   0.00000   0.24094   0.00000
   6        6PX        -0.13661   0.00000   0.00000   0.00000   0.00000
   7        6PY         0.00000   0.40793  -0.45106   0.00000  -0.19486
   8        6PZ         0.00000   0.00000   0.00000  -0.39707   0.00000
   9        7PX         1.10983   0.00000   0.00000   0.00000   0.00000
  10        7PY         0.00000  -0.64801  -2.13367   0.00000   3.17909
  11        7PZ         0.00000   0.00000   0.00000   1.04235   0.00000
  12        8PX         0.04569   0.00000   0.00000   0.00000   0.00000
  13        8PY         0.00000   0.28074  -0.86855   0.00000   0.61153
  14        8PZ         0.00000   0.00000   0.00000  -0.01440   0.00000
  15        9D 0        0.00000   0.00000   0.00000   0.08812   0.00000
  16        9D+1        0.07893   0.00000   0.00000   0.00000   0.00000
  17        9D-1        0.00000  -0.08833  -0.21830   0.00000   0.20826
  18        9D+2        0.00000   0.00000   0.00000   0.03590   0.00000
  19        9D-2        0.00000   0.00000   0.00000   0.00000   0.00000
  20       10D 0        0.00000   0.00000   0.00000  -1.03257   0.00000
  21       10D+1       -0.81548   0.00000   0.00000   0.00000   0.00000
  22       10D-1        0.00000   0.72455   1.09225   0.00000  -1.60022
  23       10D+2        0.00000   0.00000   0.00000  -0.53073   0.00000
  24       10D-2        0.00000   0.00000   0.00000   0.00000   0.00000
  25       11F 0        0.00000   0.00000   0.00000  -0.29842   0.00000
  26       11F+1       -0.14507   0.00000   0.00000   0.00000   0.00000
  27       11F-1        0.00000   0.03539  -0.17812   0.00000  -0.12651
  28       11F+2        0.00000   0.00000   0.00000   0.32203   0.00000
  29       11F-2        0.00000   0.00000   0.00000   0.00000   0.00000
  30       11F+3        0.15061   0.00000   0.00000   0.00000   0.00000
  31       11F-3        0.00000  -0.18386   0.22390   0.00000   0.31892
  32 2   H  1S          0.00000   0.20123  -0.07212   0.13086  -0.53223
  33        2S          0.00000   0.48731   3.01208  -0.05260  -2.42200
  34        3S          0.00000  -0.16681   0.32004  -0.09389   0.05475
  35        4PX        -0.08025   0.00000   0.00000   0.00000   0.00000
  36        4PY         0.00000  -0.01801  -0.16937  -0.41261   0.70466
  37        4PZ         0.00000   0.59301   0.26910  -0.23374  -0.46578
  38        5PX        -0.47153   0.00000   0.00000   0.00000   0.00000
  39        5PY         0.00000  -0.49005  -1.76389  -0.00897   0.68042
  40        5PZ         0.00000  -0.48855   0.93842  -0.41976  -0.93731
  41        6D 0        0.00000  -0.50443  -0.09249  -0.72792  -0.19844
[...]
    1. CR ( 1) O  1             1.99999   -18.76840
    2. LP ( 1) O  1             1.99748    -0.26228  35(v),48(v)
    3. LP ( 2) O  1             1.99710    -0.49863  34(v),47(v)
    4. BD ( 1) O  1- H  2       1.99958    -0.62191  49(v)
    5. BD ( 1) O  1- H  3       1.99958    -0.62191  36(v)
 ------ non-Lewis ----------------------------------
    6. BD*( 1) O  1- H  2       0.00001     0.35253
    7. BD*( 1) O  1- H  3       0.00001     0.35253
    8. RY ( 1) O  1             0.00000     3.16390
    9. RY ( 2) O  1             0.00000     0.83073
   10. RY ( 3) O  1             0.00000     8.93490
   11. RY ( 4) O  1             0.00000    37.94252
   12. RY ( 5) O  1             0.00000     0.40453
   13. RY ( 6) O  1             0.00000     2.55324
   14. RY ( 7) O  1             0.00000     0.60935
   15. RY ( 8) O  1             0.00000     3.60518
   16. RY ( 9) O  1             0.00000     0.92997
   17. RY (10) O  1             0.00000     1.45023
   18. RY (11) O  1             0.00000     6.24480
   19. RY (12) O  1             0.00000     1.45757
   20. RY (13) O  1             0.00000     6.22722
   21. RY (14) O  1             0.00000     2.10805
   22. RY (15) O  1             0.00000     7.02253
   23. RY (16) O  1             0.00000     1.66665
   24. RY (17) O  1             0.00000     5.80084
   25. RY (18) O  1             0.00000     1.48493
   26. RY (19) O  1             0.00000     6.33358
   27. RY (20) O  1             0.00000     5.63891
   28. RY (21) O  1             0.00000     5.25406
   29. RY (22) O  1             0.00000     6.31306
   30. RY (23) O  1             0.00000     5.92695
   31. RY (24) O  1             0.00000     5.84597
   32. RY (25) O  1             0.00000     5.57984
   33. RY (26) O  1             0.00000     5.63808
   34. RY ( 1) H  2             0.00146     0.84093
   35. RY ( 2) H  2             0.00126     1.46434
   36. RY ( 3) H  2             0.00041     2.21132
   37. RY ( 4) H  2             0.00000     3.47545
   38. RY ( 5) H  2             0.00000     3.21464
   39. RY ( 6) H  2             0.00000     2.81922
   40. RY ( 7) H  2             0.00000     3.05303
   41. RY ( 8) H  2             0.00000     2.11756
   42. RY ( 9) H  2             0.00000     2.84615
   43. RY (10) H  2             0.00000     3.96565
   44. RY (11) H  2             0.00000     3.70946
   45. RY (12) H  2             0.00000     3.65807
   46. RY (13) H  2             0.00000     4.08781
   47. RY ( 1) H  3             0.00146     0.84093
   48. RY ( 2) H  3             0.00126     1.46434
   49. RY ( 3) H  3             0.00041     2.21132
   50. RY ( 4) H  3             0.00000     3.47545
   51. RY ( 5) H  3             0.00000     3.21464
   52. RY ( 6) H  3             0.00000     2.81922
   53. RY ( 7) H  3             0.00000     3.05303
   54. RY ( 8) H  3             0.00000     2.11756
   55. RY ( 9) H  3             0.00000     2.84615
   56. RY (10) H  3             0.00000     3.96565
   57. RY (11) H  3             0.00000     3.70946
   58. RY (12) H  3             0.00000     3.65807
   59. RY (13) H  3             0.00000     4.08781
          -------------------------------
                 Total Lewis    9.99373  ( 99.9373%)
           Valence non-Lewis    0.00002  (  0.0002%)
           Rydberg non-Lewis    0.00625  (  0.0625%)
          -------------------------------
               Total unit  1   10.00000  (100.0000%)
              Charge unit  1    0.00000

 $CHOOSE
   LONE 1 2 END
   BOND S 1 2 S 1 3 END
 $END

 NBO analysis completed in 0.09 CPU seconds (0 wall seconds)
 Maximum scratch memory used by NBO was 260942 words
 Maximum scratch memory used by G09NBO was 26010 words

 Read Unf file /scr/martin/g09job989/Gau-2795.EUF:
 Label Gaussian matrix elements                                         IVers= 1 NLab= 2 Version=ES64L-G09RevE.01
 Title Water DF-BP86-D3(PCM)/def2-TZVPP                                
 NAtoms=     3 NBasis=    59 NBsUse=    59 ICharg=     0 Multip=     1 NE=    10 Len12L=8 Len4L=8
 Label GAUSSIAN SCALARS                                                 NI= 1 NR= 1 NTot=       1 LenBuf=    2000 N=    1000       1       1       1       1
 Label NPA CHARGES                                                      NI= 0 NR= 1 NTot=       3 LenBuf=    4000 N=       3       0       0       0       0
 Recovered energy= -76.4698972995     dipole=      0.000000000000      0.000000000000      0.000000000000
 Leave Link  612 at Tue Jan  9 19:10:10 2018, MaxMem=  4194304000 cpu:         3.1
 (Enter /home/chemsoft/gaussian/g09e01/g09/l701.exe)
 Compute integral second derivatives.
 ... and contract with generalized density number  0.
 R6Disp: Adding Grimme-D3 dispersion energy 2nd derivatives to the Hessian.
   4 Symmetry operations used in ECPInt.
 ECPInt:  NShTT=     276 NPrTT=     694 LenC2=     277 LenP2D=     681.
 LDataN:  DoStor=T MaxTD1= 8 Len=  415
 D2PCM: PCM CHGder 2nd derivatives, FixD1E=F FixD2E=F DoIter=F DoCFld=F I1PDM=0
 GePol: Maximum number of non-zero 2nd derivatives   =     262
 Leave Link  701 at Tue Jan  9 19:10:12 2018, MaxMem=  4194304000 cpu:        15.5
 (Enter /home/chemsoft/gaussian/g09e01/g09/l702.exe)
 L702 exits ... SP integral derivatives will be done elsewhere.
 Leave Link  702 at Tue Jan  9 19:10:12 2018, MaxMem=  4194304000 cpu:         0.1
 (Enter /home/chemsoft/gaussian/g09e01/g09/l703.exe)
 Compute integral second derivatives, UseDBF=T ICtDFT=           0.
 Integral derivatives from FoFJK, PRISM(SPDF).
 Calling FoFJK, ICntrl=    100527 FMM=F ISym2X=1 I1Cent= 4 IOpClX= 0 NMat=1 NMatS=1 NMatT=0.
 FoFJK:  IHMeth= 1 ICntrl=  100527 DoSepK=F KAlg= 0 I1Cent=   4 FoldK=F
 IRaf=         0 NMat=   1 IRICut=       1 DoRegI=T DoRafI=F ISym2E= 1.
 FoFCou: FMM=F IPFlag=           0 FMFlag=      100000 FMFlg1=         800
         NFxFlg=           0 DoJE=F BraDBF=F KetDBF=T FulRan=T
         wScrn=  0.000000 ICntrl=  100527 IOpCl=  0 I1Cent=           4 NGrid=           0
         NMat0=    1 NMatS0=      1 NMatT0=    0 NMatD0=    1 NMtDS0=    0 NMtDT0=    0
 Petite list used in FoFCou.
 Leave Link  703 at Tue Jan  9 19:10:13 2018, MaxMem=  4194304000 cpu:         6.4
 (Enter /home/chemsoft/gaussian/g09e01/g09/l716.exe)
 Dipole        =-1.76784458D-16 3.94473408D-16-8.03568339D-01
 Polarizability= 6.66095680D+00-3.84329517D-12 9.42686171D+00
                 2.49481468D-13 5.38995405D-11 8.41843442D+00
 Full mass-weighted force constant matrix:
 Low frequencies ---  -99.3109  -78.0161  -24.2994   -0.0012    0.0008    0.0010
 Low frequencies --- 1593.8880 3690.2311 3788.6738
 Diagonal vibrational polarizability:
        0.0000000       0.0978295       0.7773814
 Harmonic frequencies (cm**-1), IR intensities (KM/Mole), Raman scattering
 activities (A**4/AMU), depolarization ratios for plane and unpolarized
 incident light, reduced masses (AMU), force constants (mDyne/A),
 and normal coordinates:
                      1                      2                      3
                     A1                     A1                     B2
 Frequencies --   1593.8880              3690.2311              3788.6736
 Red. masses --      1.0827                 1.0452                 1.0812
 Frc consts  --      1.6205                 8.3860                 9.1438
 IR Inten    --     72.4750                 4.8866                52.1808
  Atom  AN      X      Y      Z        X      Y      Z        X      Y      Z
     1   8    -0.00  -0.00  -0.07     0.00  -0.00   0.05    -0.00  -0.07  -0.00
     2   1     0.00   0.43   0.56     0.00   0.58  -0.40    -0.00   0.56  -0.44
     3   1     0.00  -0.43   0.56    -0.00  -0.58  -0.40     0.00   0.56   0.44

 -------------------
 - Thermochemistry -
 -------------------
 Temperature   298.150 Kelvin.  Pressure   1.00000 Atm.
 Atom     1 has atomic number  8 and mass  15.99491
 Atom     2 has atomic number  1 and mass   1.00783
 Atom     3 has atomic number  1 and mass   1.00783
 Molecular mass:    18.01056 amu.
 Principal axes and moments of inertia in atomic units:
                           1         2         3
     Eigenvalues --     2.29091   4.20031   6.49122
           X           -0.00000   0.00000   1.00000
           Y            1.00000   0.00000   0.00000
           Z           -0.00000   1.00000  -0.00000
 This molecule is an asymmetric top.
 Rotational symmetry number  2.
 Rotational temperatures (Kelvin)     37.80764    20.62080    13.34323
 Rotational constants (GHZ):         787.78434   429.66832   278.02804
 Zero-point vibrational energy      54267.4 (Joules/Mol)
                                   12.97021 (Kcal/Mol)
 Vibrational temperatures:   2293.25  5309.41  5451.05
          (Kelvin)
 
 Zero-point correction=                           0.020669 (Hartree/Particle)
 Thermal correction to Energy=                    0.023505
 Thermal correction to Enthalpy=                  0.024449
 Thermal correction to Gibbs Free Energy=         0.002997
 Sum of electronic and zero-point Energies=            -76.449228
 Sum of electronic and thermal Energies=               -76.446392
 Sum of electronic and thermal Enthalpies=             -76.445448
 Sum of electronic and thermal Free Energies=          -76.466900
 
                     E (Thermal)             CV                S
                      KCal/Mol        Cal/Mol-Kelvin    Cal/Mol-Kelvin
 Total                   14.750              6.015             45.150
 Electronic               0.000              0.000              0.000
 Translational            0.889              2.981             34.608
 Rotational               0.889              2.981             10.534
 Vibrational             12.972              0.054              0.008
                       Q            Log10(Q)             Ln(Q)
 Total Bot       0.418169D-01         -1.378649         -3.174456
 Total V=0       0.134452D+09          8.128569         18.716721
 Vib (Bot)       0.311158D-09         -9.507019        -21.890720
 Vib (V=0)       0.100046D+01          0.000198          0.000457
 Electronic      0.100000D+01          0.000000          0.000000
 Translational   0.300432D+07          6.477746         14.915562
 Rotational      0.447326D+02          1.650624          3.800703
 
                                                   Water DF-BP86-D3(PCM)/def2-TZV
 PP
                                                             IR Spectrum
 
     3   3                                                                     1                                                     
     7   6                                                                     5                                                     
     8   9                                                                     9                                                     
     9   0                                                                     4                                                     
 
     X   X                                                                     X                                                     
     X                                                                         X                                                     
     X                                                                         X                                                     
     X                                                                         X                                                     
     X                                                                         X                                                     
     X                                                                         X                                                     
     X                                                                         X                                                     
     X                                                                         X                                                     
     X                                                                         X                                                     
     X                                                                         X                                                     
     X                                                                         X                                                     
     X                                                                         X                                                     
     X                                                                         X                                                     
     X                                                                         X                                                     
                                                                               X                                                     
                                                                               X                                                     
                                                                               X                                                     
                                                                               X                                                     
                                                                               X                                                     
                                                                               X                                                     
 
 ***** Axes restored to original set *****
 -------------------------------------------------------------------
 Center     Atomic                   Forces (Hartrees/Bohr)
 Number     Number              X              Y              Z
 -------------------------------------------------------------------
      1        8           0.000000069   -0.000000000    0.000000049
      2        1          -0.000000011    0.000000000   -0.000000058
      3        1          -0.000000059    0.000000000    0.000000009
 -------------------------------------------------------------------
 Cartesian Forces:  Max     0.000000069 RMS     0.000000040
 Force constants in Cartesian coordinates: 
                1             2             3             4             5 
      1  0.495820D+00
      2  0.000000D+00 -0.399992D-04
      3 -0.951860D-01  0.000000D+00  0.561371D+00
      4 -0.420743D-01  0.000000D+00 -0.522515D-01  0.452977D-01
      5  0.000000D+00  0.199996D-04  0.000000D+00  0.000000D+00 -0.126069D-03
      6  0.568755D-02  0.000000D+00 -0.486521D+00  0.392830D-02  0.000000D+00
      7 -0.453746D+00  0.000000D+00  0.147437D+00 -0.322342D-02  0.000000D+00
      8  0.000000D+00  0.199996D-04  0.000000D+00  0.000000D+00  0.106069D-03
      9  0.894984D-01  0.000000D+00 -0.748495D-01  0.483232D-01  0.000000D+00
                6             7             8             9 
      6  0.503073D+00
      7 -0.961585D-02  0.456969D+00
      8  0.000000D+00  0.000000D+00 -0.126069D-03
      9 -0.165514D-01 -0.137822D+00  0.000000D+00  0.914009D-01
 FormGI is forming the generalized inverse of G from B-inverse, IUseBI=4.
 Force constants in internal coordinates: 
                1             2             3 
      1  0.502542D+00
      2 -0.534420D-02  0.502542D+00
      3  0.304795D-01  0.304795D-01  0.154912D+00
 Leave Link  716 at Tue Jan  9 19:10:14 2018, MaxMem=  4194304000 cpu:         2.1
 (Enter /home/chemsoft/gaussian/g09e01/g09/l103.exe)

 GradGradGradGradGradGradGradGradGradGradGradGradGradGradGradGradGradGrad
 Berny optimization.
 Red2BG is reusing G-inverse.
 Internal  Forces:  Max     0.000000059 RMS     0.000000049
 Search for a local minimum.
 Step number   1 out of a maximum of    2
 All quantities printed in internal units (Hartrees-Bohrs-Radians)
 Second derivative matrix not updated -- analytic derivatives used.
 The second derivative matrix:
                          R1        R2        A1
           R1           0.50254
           R2          -0.00534   0.50254
           A1           0.03048   0.03048   0.15491
 ITU=  0
     Eigenvalues ---    0.14957   0.50254   0.50789
 Angle between quadratic step and forces=  90.00 degrees.
 Linear search not attempted -- first point.
 Iteration  1 RMS(Cart)=  0.00000009 RMS(Int)=  0.00000000
 ITry= 1 IFail=0 DXMaxC= 9.98D-08 DCOld= 1.00D+10 DXMaxT= 3.00D-01 DXLimC= 3.00D+00 Rises=F
 ClnCor:  largest displacement from symmetrization is 9.48D-14 for atom     3.
 Variable       Old X    -DE/DX   Delta X   Delta X   Delta X     New X
                                 (Linear)    (Quad)   (Total)
    R1        1.83402  -0.00000   0.00000  -0.00000  -0.00000   1.83402
    R2        1.83402  -0.00000   0.00000  -0.00000  -0.00000   1.83402
    A1        1.81218   0.00000   0.00000   0.00000   0.00000   1.81218
         Item               Value     Threshold  Converged?
 Maximum Force            0.000000     0.000450     YES
 RMS     Force            0.000000     0.000300     YES
 Maximum Displacement     0.000000     0.001800     YES
 RMS     Displacement     0.000000     0.001200     YES
 Predicted change in Energy=-8.534827D-15
 Optimization completed.
    -- Stationary point found.
                           ----------------------------
                           !   Optimized Parameters   !
                           ! (Angstroms and Degrees)  !
 --------------------------                            --------------------------
 ! Name  Definition              Value          Derivative Info.                !
 --------------------------------------------------------------------------------
 ! R1    R(1,2)                  0.9705         -DE/DX =    0.0                 !
 ! R2    R(1,3)                  0.9705         -DE/DX =    0.0                 !
 ! A1    A(2,1,3)              103.8302         -DE/DX =    0.0                 !
 --------------------------------------------------------------------------------
 GradGradGradGradGradGradGradGradGradGradGradGradGradGradGradGradGradGrad

 Leave Link  103 at Tue Jan  9 19:10:14 2018, MaxMem=  4194304000 cpu:         2.0
 (Enter /home/chemsoft/gaussian/g09e01/g09/l9999.exe)

 Test job not archived.
 1\1\GINC-LENOX07\Freq\RBP86\def2TZVPP/W06\H2O1\MARTIN\09-Jan-2018\0\\#
 P BP86/def2TZVPP/W06 DenFit empiricaldispersion=GD3 freq geom=check gu
 ess=read scf(xqc,MaxConventionalCycle=500) int(ultrafinegrid) scrf(pcm
 ,solvent=toluene) gfinput gfoldprint iop(6/7=3) symmetry(loose) pop=fu
 ll pop=nbo6 pop(Allorbitals,ThreshOrbitals=5)\\Water DF-BP86-D3(PCM)/d
 ef2-TZVPP\\0,1\O,0.0532961168,0.,0.0380157507\H,0.0970662951,0.,1.0075
 509977\H,0.9842598788,0.,-0.2362485338\\Version=ES64L-G09RevE.01\State
 =1-A1\HF=-76.4698973\RMSD=8.107e-11\RMSF=3.981e-08\ZeroPoint=0.0206693
 \Thermal=0.0235052\Dipole=0.6541975,0.,0.4666345\DipoleDeriv=-0.401436
 1,0.,0.0700562,0.,-0.710476,0.,0.0700562,0.,-0.4496807,0.2738634,0.,-0
 .0653644,0.,0.355238,0.,-0.0550637,0.,0.151695,0.1275727,0.,-0.0046918
 ,0.,0.355238,0.,-0.0149925,0.,0.2979857\Polar=8.7584922,0.,6.6609568,-
 0.4767434,0.,9.086804\PG=C02V [C2(O1),SGV(H2)]\NImag=0\\0.49582031,0.,
 -0.00004000,-0.09518597,0.,0.56137062,-0.04207432,0.,-0.05225150,0.045
 29773,0.,0.00002000,0.,0.,-0.00012607,0.00568755,0.,-0.48652115,0.0039
 2830,0.,0.50307258,-0.45374599,0.,0.14743747,-0.00322342,0.,-0.0096158
 5,0.45696941,0.,0.00002000,0.,0.,0.00010607,0.,0.,-0.00012607,0.089498
 42,0.,-0.07484947,0.04832320,0.,-0.01655143,-0.13782162,0.,0.09140090\
 \-0.00000007,0.,-0.00000005,0.00000001,0.,0.00000006,0.00000006,0.,0.\
 \\@


 IF THERE IS ONE WAY BETTER THAN ANOTHER IT IS THE WAY OF NATURE.

                          -- ARISTOTLE
 Job cpu time:       0 days  0 hours  1 minutes 49.3 seconds.
 File lengths (MBytes):  RWF=      9 Int=      0 D2E=      0 Chk=      3 Scr=      1
 Normal termination of Gaussian 09 at Tue Jan  9 19:10:14 2018.
