 Entering Gaussian System, Link 0=g09
 Input=h2o.df-bp86-d3.def2tzvpp.gjf
 Output=h2o.df-bp86-d3.def2tzvpp.log
 Initial command:
 /home/chemsoft/gaussian/g09e01/g09/l1.exe "/scr/martin/g09job984/Gau-28660.inp" -scrdir="/scr/martin/g09job984/"
 Entering Link 1 = /home/chemsoft/gaussian/g09e01/g09/l1.exe PID=     28661.
  
 Copyright (c) 1988,1990,1992,1993,1995,1998,2003,2009,2015,
            Gaussian, Inc.  All Rights Reserved.
  
 This is part of the Gaussian(R) 09 program.  It is based on
 the Gaussian(R) 03 system (copyright 2003, Gaussian, Inc.),
 the Gaussian(R) 98 system (copyright 1998, Gaussian, Inc.),
 the Gaussian(R) 94 system (copyright 1995, Gaussian, Inc.),
 the Gaussian 92(TM) system (copyright 1992, Gaussian, Inc.),
 the Gaussian 90(TM) system (copyright 1990, Gaussian, Inc.),
 the Gaussian 88(TM) system (copyright 1988, Gaussian, Inc.),
 the Gaussian 86(TM) system (copyright 1986, Carnegie Mellon
 University), and the Gaussian 82(TM) system (copyright 1983,
 Carnegie Mellon University). Gaussian is a federally registered
 trademark of Gaussian, Inc.
  
 This software contains proprietary and confidential information,
 including trade secrets, belonging to Gaussian, Inc.
  
 This software is provided under written license and may be
 used, copied, transmitted, or stored only in accord with that
 written license.
  
 The following legend is applicable only to US Government
 contracts under FAR:
  
                    RESTRICTED RIGHTS LEGEND
  
 Use, reproduction and disclosure by the US Government is
 subject to restrictions as set forth in subparagraphs (a)
 and (c) of the Commercial Computer Software - Restricted
 Rights clause in FAR 52.227-19.
  
 Gaussian, Inc.
 340 Quinnipiac St., Bldg. 40, Wallingford CT 06492
  
  
 ---------------------------------------------------------------
 Warning -- This program may not be used in any manner that
 competes with the business of Gaussian, Inc. or will provide
 assistance to any competitor of Gaussian, Inc.  The licensee
 of this program is prohibited from giving any competitor of
 Gaussian, Inc. access to this program.  By using this program,
 the user acknowledges that Gaussian, Inc. is engaged in the
 business of creating and licensing software in the field of
 computational chemistry and represents and warrants to the
 licensee that it is not a competitor of Gaussian, Inc. and that
 it will not use this program in any manner prohibited above.
 ---------------------------------------------------------------
  

 Cite this work as:
 Gaussian 09, Revision E.01,
 M. J. Frisch, G. W. Trucks, H. B. Schlegel, G. E. Scuseria, 
 M. A. Robb, J. R. Cheeseman, G. Scalmani, V. Barone, B. Mennucci, 
 G. A. Petersson, H. Nakatsuji, M. Caricato, X. Li, H. P. Hratchian, 
 A. F. Izmaylov, J. Bloino, G. Zheng, J. L. Sonnenberg, M. Hada, 
 M. Ehara, K. Toyota, R. Fukuda, J. Hasegawa, M. Ishida, T. Nakajima, 
 Y. Honda, O. Kitao, H. Nakai, T. Vreven, J. A. Montgomery, Jr., 
 J. E. Peralta, F. Ogliaro, M. Bearpark, J. J. Heyd, E. Brothers, 
 K. N. Kudin, V. N. Staroverov, T. Keith, R. Kobayashi, J. Normand, 
 K. Raghavachari, A. Rendell, J. C. Burant, S. S. Iyengar, J. Tomasi, 
 M. Cossi, N. Rega, J. M. Millam, M. Klene, J. E. Knox, J. B. Cross, 
 V. Bakken, C. Adamo, J. Jaramillo, R. Gomperts, R. E. Stratmann, 
 O. Yazyev, A. J. Austin, R. Cammi, C. Pomelli, J. W. Ochterski, 
 R. L. Martin, K. Morokuma, V. G. Zakrzewski, G. A. Voth, 
 P. Salvador, J. J. Dannenberg, S. Dapprich, A. D. Daniels, 
 O. Farkas, J. B. Foresman, J. V. Ortiz, J. Cioslowski, 
 and D. J. Fox, Gaussian, Inc., Wallingford CT, 2013.
 
 ******************************************
 Gaussian 09:  ES64L-G09RevE.01 30-Nov-2015
                 9-Jan-2018 
 ******************************************
 %nproc=8
 Will use up to    8 processors via shared memory.
 %mem=32000MB
 %chk=h2o.df-bp86-d3.def2tzvpp.chk
 ----------------------------------------------------------------------
 #P BP86/def2TZVPP/W06 DenFit empiricaldispersion=GD3 opt(MaxCycle=100,
 VeryTight) scf(xqc,MaxConventionalCycle=500) int(ultrafinegrid) scrf(p
 cm,solvent=toluene) gfinput gfoldprint iop(6/7=3) symmetry(loose) pop=
 full pop=nbo6 pop(Allorbitals,ThreshOrbitals=5)
 ----------------------------------------------------------------------
 1/6=100,7=1,14=-1,18=20,19=15,26=4,38=1/1,3;
 2/9=110,12=2,17=4,18=3,40=1/2;
 3/5=44,7=202,11=2,16=1,24=11,25=1,30=1,70=2201,71=1,72=13,74=404,75=-5,82=40,124=31/1,2,3;
 4//1;
 5/5=2,8=3,13=1,38=5,53=13,85=500/2,8;
 6/7=3,28=1,40=1,87=-1,88=5,113=1,114=1,124=3103/1,12;
 7//1,2,3,16;
 1/6=100,7=1,14=-1,18=20,19=15,26=4/3(2);
 2/9=110/2;
 99//99;
 2/9=110/2;
 3/5=44,7=202,11=2,16=1,25=1,30=1,70=2205,71=1,72=13,74=404,75=-5,82=40,124=31/1,2,3;
 4/5=5,16=3,69=1/1;
 5/5=2,8=3,13=1,38=5,53=13,85=500/2,8;
 7//1,2,3,16;
 1/6=100,7=1,14=-1,18=20,19=15,26=4/3(-5);
 2/9=110/2;
 6/7=3,19=2,28=1,40=1,87=-1,88=5,113=1,114=1,124=3103/1,12;
 99/9=1/99;
 Leave Link    1 at Tue Jan  9 18:57:19 2018, MaxMem=  4194304000 cpu:         1.1
 (Enter /home/chemsoft/gaussian/g09e01/g09/l101.exe)
 --------------------------------
 Water DF-BP86-D3(PCM)/def2-TZVPP
 --------------------------------
 Symbolic Z-matrix:
 Charge =  0 Multiplicity = 1
 O
 H                    1     1.2 
 H                    1     1.2      2     109. 
 
 Add virtual bond connecting atoms H2         and O1         Dist= 2.27D+00.
 Add virtual bond connecting atoms H3         and O1         Dist= 2.27D+00.
 NAtoms=      3 NQM=        3 NQMF=       0 NMMI=      0 NMMIF=      0
                NMic=       0 NMicF=      0.
                    Isotopes and Nuclear Properties:
 (Nuclear quadrupole moments (NQMom) in fm**2, nuclear magnetic moments (NMagM)
  in nuclear magnetons)

  Atom         1           2           3
 IAtWgt=          16           1           1
 AtmWgt=  15.9949146   1.0078250   1.0078250
 NucSpn=           0           1           1
 AtZEff=   0.0000000   0.0000000   0.0000000
 NQMom=    0.0000000   0.0000000   0.0000000
 NMagM=    0.0000000   2.7928460   2.7928460
 AtZNuc=   8.0000000   1.0000000   1.0000000
 Leave Link  101 at Tue Jan  9 18:57:19 2018, MaxMem=  4194304000 cpu:         2.0
 (Enter /home/chemsoft/gaussian/g09e01/g09/l103.exe)

 GradGradGradGradGradGradGradGradGradGradGradGradGradGradGradGradGradGrad
 Berny optimization.
 Initialization pass.
                           ----------------------------
                           !    Initial Parameters    !
                           ! (Angstroms and Degrees)  !
 --------------------------                            --------------------------
 ! Name  Definition              Value          Derivative Info.                !
 --------------------------------------------------------------------------------
 ! R1    R(1,2)                  1.2            estimate D2E/DX2                !
 ! R2    R(1,3)                  1.2            estimate D2E/DX2                !
 ! A1    A(2,1,3)              109.0            estimate D2E/DX2                !
 --------------------------------------------------------------------------------
 Trust Radius=3.00D-01 FncErr=1.00D-07 GrdErr=1.00D-06
 Number of steps in this run=    100 maximum allowed number of steps=    100.
 GradGradGradGradGradGradGradGradGradGradGradGradGradGradGradGradGradGrad

 Leave Link  103 at Tue Jan  9 18:57:19 2018, MaxMem=  4194304000 cpu:         0.0
 (Enter /home/chemsoft/gaussian/g09e01/g09/l202.exe)
                          Input orientation:                          
 ---------------------------------------------------------------------
 Center     Atomic      Atomic             Coordinates (Angstroms)
 Number     Number       Type             X           Y           Z
 ---------------------------------------------------------------------
      1          8           0        0.000000    0.000000    0.000000
      2          1           0        0.000000    0.000000    1.200000
      3          1           0        1.134622    0.000000   -0.390682
 ---------------------------------------------------------------------
                    Distance matrix (angstroms):
                    1          2          3
     1  O    0.000000
     2  H    1.200000   0.000000
     3  H    1.200000   1.953877   0.000000
 Stoichiometry    H2O
 Framework group  C2V[C2(O),SGV(H2)]
 Deg. of freedom     2
 Full point group                 C2V     NOp   4
 Largest Abelian subgroup         C2V     NOp   4
 Largest concise Abelian subgroup C2      NOp   2
                         Standard orientation:                         
 ---------------------------------------------------------------------
 Center     Atomic      Atomic             Coordinates (Angstroms)
 Number     Number       Type             X           Y           Z
 ---------------------------------------------------------------------
      1          8           0        0.000000    0.000000    0.139369
      2          1           0       -0.000000    0.976939   -0.557475
      3          1           0       -0.000000   -0.976939   -0.557475
 ---------------------------------------------------------------------
 Rotational constants (GHZ):    581.4025008    262.7044919    180.9451289
 Leave Link  202 at Tue Jan  9 18:57:19 2018, MaxMem=  4194304000 cpu:         0.0
 (Enter /home/chemsoft/gaussian/g09e01/g09/l301.exe)
 Standard basis: def2TZVPP (5D, 7F)
 ======================================================================================================
                                       Pseudopotential Parameters
 ======================================================================================================
  Center     Atomic      Valence      Angular      Power
  Number     Number     Electrons     Momentum     of R      Exponent        Coefficient   SO-Coeffient
 ======================================================================================================
    1          8
                                   No pseudopotential on this center.
    2          1
                                   No pseudopotential on this center.
    3          1
                                   No pseudopotential on this center.
 ======================================================================================================
 Ernie: Thresh=  0.10000D-02 Tol=  0.10000D-05 Strict=F.
 AO basis set in the form of general basis input (Overlap normalization):
      1 0
 S   6 1.00       0.000000000000
      0.2703238263D+05  0.5722733521D-03
      0.4052387139D+04  0.4435323349D-02
      0.9223272271D+03  0.2302010771D-01
      0.2612407099D+03  0.9282249067D-01
      0.8535464135D+02  0.2937850001D+00
      0.3103503525D+02  0.6740160450D+00
 S   2 1.00       0.000000000000
      0.1226086073D+02  0.6383993703D+00
      0.4998707601D+01  0.3953458713D+00
 S   1 1.00       0.000000000000
      0.1170310816D+01  0.1000000000D+01
 S   1 1.00       0.000000000000
      0.4647474099D+00  0.1000000000D+01
 S   1 1.00       0.000000000000
      0.1850453636D+00  0.1000000000D+01
 P   4 1.00       0.000000000000
      0.6327495480D+02  0.1201833222D-01
      0.1462704938D+02  0.8300542179D-01
      0.4450122346D+01  0.3199174393D+00
      0.1527579965D+01  0.7071554292D+00
 P   1 1.00       0.000000000000
      0.5293511794D+00  0.1000000000D+01
 P   1 1.00       0.000000000000
      0.1747842127D+00  0.1000000000D+01
 D   1 1.00       0.000000000000
      0.2314000000D+01  0.1000000000D+01
 D   1 1.00       0.000000000000
      0.6450000000D+00  0.1000000000D+01
 F   1 1.00       0.000000000000
      0.1428000000D+01  0.1000000000D+01
 ****
      2 0
 S   3 1.00       0.000000000000
      0.3406134100D+02  0.2543930721D-01
      0.5123574600D+01  0.1900859489D+00
      0.1164662600D+01  0.8524411301D+00
 S   1 1.00       0.000000000000
      0.3272304100D+00  0.1000000000D+01
 S   1 1.00       0.000000000000
      0.1030724100D+00  0.1000000000D+01
 P   1 1.00       0.000000000000
      0.1407000000D+01  0.1000000000D+01
 P   1 1.00       0.000000000000
      0.3880000000D+00  0.1000000000D+01
 D   1 1.00       0.000000000000
      0.1057000000D+01  0.1000000000D+01
 ****
      3 0
 S   3 1.00       0.000000000000
      0.3406134100D+02  0.2543930721D-01
      0.5123574600D+01  0.1900859489D+00
      0.1164662600D+01  0.8524411301D+00
 S   1 1.00       0.000000000000
      0.3272304100D+00  0.1000000000D+01
 S   1 1.00       0.000000000000
      0.1030724100D+00  0.1000000000D+01
 P   1 1.00       0.000000000000
      0.1407000000D+01  0.1000000000D+01
 P   1 1.00       0.000000000000
      0.3880000000D+00  0.1000000000D+01
 D   1 1.00       0.000000000000
      0.1057000000D+01  0.1000000000D+01
 ****

 ***********************************************************************************************************************************
 *             ATOMIC CENTER             *        ATOMIC ORBITAL       *                     GAUSSIAN FUNCTIONS                    *
 ***********************************************************************************************************************************
 *                                       * FUNCTION    SHELL    SCALE  *                                                           *
 *    ATOM   X-COORD  Y-COORD  Z-COORD   *  NUMBER     TYPE     FACTOR *  EXPONENT    S-COEF      P-COEF      D-COEF      F-COEF   *
 ***********************************************************************************************************************************
 *     O      0.00000 -0.00000  0.26337                                                                                            *
+                                                1   S           1.00                                                               
+                                                                      0.270324D+050.859858D+000.000000D+000.000000D+000.000000D+00 
 *                                                                     0.405239D+040.160553D+010.000000D+000.000000D+000.000000D+00*
 *                                                                     0.922327D+030.274588D+010.000000D+000.000000D+000.000000D+00*
 *                                                                     0.261241D+030.429877D+010.000000D+000.000000D+000.000000D+00*
 *                                                                     0.853546D+020.587977D+010.000000D+000.000000D+000.000000D+00*
 *                                                                     0.310350D+020.631640D+010.000000D+000.000000D+000.000000D+00*
 *                                               2   S           1.00                                                              *
+                                                                      0.122609D+020.298121D+010.000000D+000.000000D+000.000000D+00 
 *                                                                     0.499871D+010.941956D+000.000000D+000.000000D+000.000000D+00*
 *                                               3   S           1.00                                                              *
+                                                                      0.117031D+010.801929D+000.000000D+000.000000D+000.000000D+00 
 *                                               4   S           1.00                                                              *
+                                                                      0.464747D+000.401165D+000.000000D+000.000000D+000.000000D+00 
 *                                               5   S           1.00                                                              *
+                                                                      0.185045D+000.201080D+000.000000D+000.000000D+000.000000D+00 
 *                                           6-  8   P           1.00                                                              *
+                                                                      0.632750D+020.000000D+000.305720D+010.000000D+000.000000D+00 
 *                                                                     0.146270D+020.000000D+000.338448D+010.000000D+000.000000D+00*
 *                                                                     0.445012D+010.000000D+000.294743D+010.000000D+000.000000D+00*
 *                                                                     0.152758D+010.000000D+000.171183D+010.000000D+000.000000D+00*
 *                                           9- 11   P           1.00                                                              *
+                                                                      0.529351D+000.000000D+000.643606D+000.000000D+000.000000D+00 
 *                                          12- 14   P           1.00                                                              *
+                                                                      0.174784D+000.000000D+000.161090D+000.000000D+000.000000D+00 
 *                                          15- 19   D           1.00                                                              *
+                                                                      0.231400D+010.000000D+000.000000D+000.714571D+010.000000D+00 
 *                                          20- 24   D           1.00                                                              *
+                                                                      0.645000D+000.000000D+000.000000D+000.764080D+000.000000D+00 
 *                                          19- 31   F           1.00                                                              *
+                                                                      0.142800D+010.000000D+000.000000D+000.000000D+000.328165D+01 
 *---------------------------------------------------------------------------------------------------------------------------------*
 *     H     -0.00000  1.84615 -1.05347                                                                                            *
+                                               32   S           1.00                                                               
+                                                                      0.340613D+020.255630D+000.000000D+000.000000D+000.000000D+00 
 *                                                                     0.512357D+010.461360D+000.000000D+000.000000D+000.000000D+00*
 *                                                                     0.116466D+010.681121D+000.000000D+000.000000D+000.000000D+00*
 *                                              33   S           1.00                                                              *
+                                                                      0.327230D+000.308355D+000.000000D+000.000000D+000.000000D+00 
 *                                              34   S           1.00                                                              *
+                                                                      0.103072D+000.129648D+000.000000D+000.000000D+000.000000D+00 
 *                                          35- 37   P           1.00                                                              *
+                                                                      0.140700D+010.000000D+000.218428D+010.000000D+000.000000D+00 
 *                                          38- 40   P           1.00                                                              *
+                                                                      0.388000D+000.000000D+000.436495D+000.000000D+000.000000D+00 
 *                                          41- 45   D           1.00                                                              *
+                                                                      0.105700D+010.000000D+000.000000D+000.181360D+010.000000D+00 
 *---------------------------------------------------------------------------------------------------------------------------------*
 *     H     -0.00000 -1.84615 -1.05347                                                                                            *
+                                               46   S           1.00                                                               
+                                                                      0.340613D+020.255630D+000.000000D+000.000000D+000.000000D+00 
 *                                                                     0.512357D+010.461360D+000.000000D+000.000000D+000.000000D+00*
 *                                                                     0.116466D+010.681121D+000.000000D+000.000000D+000.000000D+00*
 *                                              47   S           1.00                                                              *
+                                                                      0.327230D+000.308355D+000.000000D+000.000000D+000.000000D+00 
 *                                              48   S           1.00                                                              *
+                                                                      0.103072D+000.129648D+000.000000D+000.000000D+000.000000D+00 
 *                                          49- 51   P           1.00                                                              *
+                                                                      0.140700D+010.000000D+000.218428D+010.000000D+000.000000D+00 
 *                                          52- 54   P           1.00                                                              *
+                                                                      0.388000D+000.000000D+000.436495D+000.000000D+000.000000D+00 
 *                                          55- 59   D           1.00                                                              *
+                                                                      0.105700D+010.000000D+000.000000D+000.181360D+010.000000D+00 
 ***********************************************************************************************************************************
 There are    28 symmetry adapted cartesian basis functions of A1  symmetry.
 There are     7 symmetry adapted cartesian basis functions of A2  symmetry.
 There are    12 symmetry adapted cartesian basis functions of B1  symmetry.
 There are    19 symmetry adapted cartesian basis functions of B2  symmetry.
 There are    24 symmetry adapted basis functions of A1  symmetry.
 There are     7 symmetry adapted basis functions of A2  symmetry.
 There are    11 symmetry adapted basis functions of B1  symmetry.
 There are    17 symmetry adapted basis functions of B2  symmetry.
    59 basis functions,    85 primitive gaussians,    66 cartesian basis functions
     5 alpha electrons        5 beta electrons
       nuclear repulsion energy         7.3265305337 Hartrees.
 IExCor=  404 DFT=T Ex=B Corr=P86 ExCW=0 ScaHFX=  0.000000
 ScaDFX=  1.000000  1.000000  1.000000  1.000000 ScalE2=  1.000000  1.000000
 IRadAn=      5 IRanWt=     -1 IRanGd=            0 ICorTp=0 IEmpDi=131
 NAtoms=    3 NActive=    3 NUniq=    2 SFac= 2.25D+00 NAtFMM=   60 NAOKFM=F Big=F
 Integral buffers will be    131072 words long.
 Raffenetti 2 integral format.
 Two-electron integral symmetry is turned on.
 R6Disp:  Grimme-D3 Dispersion energy=       -0.0000713694 Hartrees.
 Nuclear repulsion after empirical dispersion term =        7.3264591643 Hartrees.
 Standard density basis: W06 (5D, 7F)
    71 Density fitting functions
 Density basis set in the form of general basis input (Coulomb normalization):
      1 0
 S   7 1.00       0.000000000000
      0.2876821660D+04  0.2270593741D-02
      0.1004744303D+04  0.7771821934D-02
      0.3697579954D+03  0.4500776675D-01
      0.1429442404D+03  0.1614169872D+00
      0.5783664250D+02  0.4002483159D+00
      0.2438649830D+02  0.4055352428D+00
      0.1066226620D+02  0.1264483877D-01
 S   1 1.00       0.000000000000
      0.4807043700D+01 -0.1000000000D+01
 S   1 1.00       0.000000000000
      0.2221077000D+01  0.1000000000D+01
 S   1 1.00       0.000000000000
      0.1044779500D+01  0.1000000000D+01
 S   1 1.00       0.000000000000
      0.4968425000D+00  0.1000000000D+01
 S   1 1.00       0.000000000000
      0.2371384000D+00  0.1000000000D+01
 P   2 1.00       0.000000000000
      0.6426133820D+02 -0.1493990575D+00
      0.1630060760D+02 -0.8870141552D+00
 P   1 1.00       0.000000000000
      0.4355054200D+01  0.1000000000D+01
 P   1 1.00       0.000000000000
      0.1201955400D+01  0.1000000000D+01
 P   1 1.00       0.000000000000
      0.3354196000D+00  0.1000000000D+01
 D   2 1.00       0.000000000000
      0.9214661100D+01 -0.2892091355D+00
      0.2843525100D+01 -0.7372695630D+00
 D   1 1.00       0.000000000000
      0.9955759000D+00 -0.1000000000D+01
 D   1 1.00       0.000000000000
      0.3649441000D+00 -0.1000000000D+01
 F   2 1.00       0.000000000000
      0.2642011500D+01  0.3737238795D+00
      0.7345613000D+00  0.7087681254D+00
 G   1 1.00       0.000000000000
      0.1393100000D+01 -0.1000000000D+01
 ****
      2 0
 S   3 1.00       0.000000000000
      0.1567529270D+02  0.3261158972D-01
      0.3606357800D+01  0.2298046837D+00
      0.1208001600D+01  0.7572083240D+00
 S   1 1.00       0.000000000000
      0.4726794000D+00  0.1000000000D+01
 S   1 1.00       0.000000000000
      0.2018100000D+00  0.1000000000D+01
 P   2 1.00       0.000000000000
      0.2028136500D+01  0.3618361986D+00
      0.5358730000D+00  0.7039303088D+00
 D   1 1.00       0.000000000000
      0.2216512400D+01  0.1000000000D+01
 ****
      3 0
 S   3 1.00       0.000000000000
      0.1567529270D+02  0.3261158972D-01
      0.3606357800D+01  0.2298046837D+00
      0.1208001600D+01  0.7572083240D+00
 S   1 1.00       0.000000000000
      0.4726794000D+00  0.1000000000D+01
 S   1 1.00       0.000000000000
      0.2018100000D+00  0.1000000000D+01
 P   2 1.00       0.000000000000
      0.2028136500D+01  0.3618361986D+00
      0.5358730000D+00  0.7039303088D+00
 D   1 1.00       0.000000000000
      0.2216512400D+01  0.1000000000D+01
 ****

 There are    71 symmetry adapted density basis functions of A   symmetry.
 ------------------------------------------------------------------------------
 Polarizable Continuum Model (PCM)
 =================================
 Model                : PCM (using non-symmetric T matrix).
 Atomic radii         : UFF (Universal Force Field).
 Polarization charges : Total charges.
 Charge compensation  : None.
 Solution method      : On-the-fly selection.
 Cavity type          : Scaled VdW (van der Waals Surface) (Alpha=1.100).
 Cavity algorithm     : GePol (No added spheres)
                        Default sphere list used, NSphG=    3.
                        Lebedev-Laikov grids with approx.  5.0 points / Ang**2.
                        Smoothing algorithm: York/Karplus (Gamma=1.0000).
                        Polarization charges: spherical gaussians, with
                                              point-specific exponents (IZeta= 3).
                        Self-potential: point-specific (ISelfS= 7).
                        Self-field    : sphere-specific E.n sum rule (ISelfD= 2).
 1st derivatives      : Analytical E(r).r(x)/FMM algorithm (CHGder, D1EAlg=3).
                        Cavity 1st derivative terms included.
 Solvent              : Toluene, Eps=   2.374100 Eps(inf)=   2.238315
 ------------------------------------------------------------------------------
 Spheres list:
 ISph  on   Nord     Re0    Alpha      Xe            Ye            Ze
    1   O      1    1.7500  1.100      0.000000     -0.000000      0.139369
    2   H      2    1.4430  1.100     -0.000000      0.976939     -0.557475
    3   H      3    1.4430  1.100     -0.000000     -0.976939     -0.557475
 ------------------------------------------------------------------------------
 GePol: Number of generator spheres                  =       3
 GePol: Total number of spheres                      =       3
 GePol: Number of exposed spheres                    =       3 (100.00%)
 GePol: Number of points                             =     412
 GePol: Average weight of points                     =       0.15
 GePol: Minimum weight of points                     =   0.11D-04
 GePol: Maximum weight of points                     =    0.20212
 GePol: Number of points with low weight             =      16
 GePol: Fraction of low-weight points (<1% of avg)   =       3.88%
 GePol: Cavity surface area                          =     59.834 Ang**2
 GePol: Cavity volume                                =     40.969 Ang**3
 Leave Link  301 at Tue Jan  9 18:57:19 2018, MaxMem=  4194304000 cpu:         0.7
 (Enter /home/chemsoft/gaussian/g09e01/g09/l302.exe)
 NPDir=0 NMtPBC=     1 NCelOv=     1 NCel=       1 NClECP=     1 NCelD=      1
         NCelK=      1 NCelE2=     1 NClLst=     1 CellRange=     0.0.
 One-electron integrals computed using PRISM.
 One-electron integral symmetry used in STVInt
   4 Symmetry operations used in ECPInt.
 ECPInt:  NShTT=     276 NPrTT=     694 LenC2=     277 LenP2D=     677.
 LDataN:  DoStor=T MaxTD1= 6 Len=  172
 NBasis=    59 RedAO= T EigKep=  9.33D-03  NBF=    24     7    11    17
 NBsUse=    59 1.00D-06 EigRej= -1.00D+00 NBFU=    24     7    11    17
 NBasis=       59 NBas6D=       66 NTT=        1770   NTT6D=     2211
 NDBShl=       25 NDBF=         71 NDBF6D=       85  NNucDB=        0
 IDenFi=        2 ISolve=        0 FullAP=F BlkAPC=T NucTyp=        0
 TolInv= 1.00D-06 TolIt=  1.00D-10 IR12=0.
 FoFCou: FMM=F IPFlag=           0 FMFlag=           0 FMFlg1=           0
         NFxFlg=           0 DoJE=F BraDBF=T KetDBF=T FulRan=T
         wScrn=  0.000000 ICntrl=     600 IOpCl=  3 I1Cent=           6 NGrid=           0
         NMat0=    1 NMatS0=     85 NMatT0=    0 NMatD0=    1 NMtDS0=    0 NMtDT0=    0
 Petite list used in FoFCou.
 DBF EigKep=  2.21D-04 EigRej= -1.00D+00
 NDBF=     71  NBFD=    71
 NRank=    71 NBFDU=    71
 S*AI*S=  4.47984315174    
 Precomputing XC quadrature grid using
 IXCGrd= 4 IRadAn=           5 IRanWt=          -1 IRanGd=           0 AccXCQ= 0.00D+00.
 Generated NRdTot=       0 NPtTot=           0 NUsed=           0 NTot=          32
 NSgBfM=    66    66    66    66    66 MxSgAt=     3 MxSgA2=     3.
 Leave Link  302 at Tue Jan  9 18:57:22 2018, MaxMem=  4194304000 cpu:        14.2
 (Enter /home/chemsoft/gaussian/g09e01/g09/l303.exe)
 DipDrv:  MaxL=1.
 Leave Link  303 at Tue Jan  9 18:57:22 2018, MaxMem=  4194304000 cpu:         0.1
 (Enter /home/chemsoft/gaussian/g09e01/g09/l401.exe)
 ExpMin= 1.03D-01 ExpMax= 2.70D+04 ExpMxC= 9.22D+02 IAcc=3 IRadAn=         5 AccDes= 0.00D+00
 Harris functional with IExCor=  404 and IRadAn=       5 diagonalized for initial guess.
 HarFok:  IExCor=  404 AccDes= 0.00D+00 IRadAn=         5 IDoV= 1 UseB2=F ITyADJ=14
 ICtDFT=  3500011 ScaDFX=  1.000000  1.000000  1.000000  1.000000
 FoFCou: FMM=F IPFlag=           0 FMFlag=      100000 FMFlg1=           0
         NFxFlg=           0 DoJE=T BraDBF=F KetDBF=T FulRan=T
         wScrn=  0.000000 ICntrl=     500 IOpCl=  0 I1Cent=   200000004 NGrid=           0
         NMat0=    1 NMatS0=      1 NMatT0=    0 NMatD0=    1 NMtDS0=    0 NMtDT0=    0
 Petite list used in FoFCou.
 Harris En= -76.4415598953282    
 JPrj=0 DoOrth=F DoCkMO=F.
 Initial guess orbital symmetries:
       Occupied  (A1) (A1) (B2) (A1) (B1)
       Virtual   (A1) (B2) (A1) (B2) (A1) (B1) (B2) (A1) (A2) (A1)
                 (B1) (B2) (A1) (B2) (B1) (A2) (A1) (A1) (B2) (B2)
                 (B1) (A1) (A1) (B2) (A1) (B1) (A2) (A1) (B2) (B2)
                 (A2) (B1) (A1) (A2) (A1) (B1) (B2) (B2) (A1) (A1)
                 (B2) (B1) (A1) (B1) (A2) (B2) (B1) (A1) (B2) (A2)
                 (A1) (B2) (A1) (A1)
 The electronic state of the initial guess is 1-A1.
 Leave Link  401 at Tue Jan  9 18:57:22 2018, MaxMem=  4194304000 cpu:         5.0
 (Enter /home/chemsoft/gaussian/g09e01/g09/l502.exe)
 Closed shell SCF:
 Density fitting will be used, IDenFit= 2 NucTyp=  0.
 Using DIIS extrapolation, IDIIS=  1040.
 Integral symmetry usage will be decided dynamically.
 IVT=      268346 IEndB=      268346 NGot=  4194304000 MDV=  4194291077
 LenX=  4194291077 LenY=  4194286280
 Requested convergence on RMS density matrix=1.00D-08 within 500 cycles.
 Requested convergence on MAX density matrix=1.00D-06.
 Requested convergence on             energy=1.00D-06.
 No special actions if energy rises.
 Fock matrices will be formed incrementally for  20 cycles.

 Cycle   1  Pass 1  IDiag  1:
 FoFCou: FMM=F IPFlag=           0 FMFlag=      100000 FMFlg1=           0
         NFxFlg=           0 DoJE=T BraDBF=T KetDBF=F FulRan=T
         wScrn=  0.000000 ICntrl=     500 IOpCl=  0 I1Cent=           5 NGrid=           0
         NMat0=    1 NMatS0=      1 NMatT0=    0 NMatD0=    1 NMtDS0=    0 NMtDT0=    0
 Petite list used in FoFCou.
 FoFJK:  IHMeth= 1 ICntrl=     500 DoSepK=F KAlg= 0 I1Cent=   4 FoldK=F
 IRaf= 990000000 NMat=   1 IRICut=       1 DoRegI=T DoRafI=F ISym2E= 1.
 Inv3:  Mode=1 IEnd=      509232.
 Iteration    1 A*A^-1 deviation from unit magnitude is 2.33D-15 for    168.
 Iteration    1 A*A^-1 deviation from orthogonality  is 1.90D-15 for    310     20.
 Iteration    1 A^-1*A deviation from unit magnitude is 2.33D-15 for     16.
 Iteration    1 A^-1*A deviation from orthogonality  is 9.29D-16 for    399     98.
 E= -76.3365297440732    
 DIIS: error= 6.97D-02 at cycle   1 NSaved=   1.
 NSaved= 1 IEnMin= 1 EnMin= -76.3365297440732     IErMin= 1 ErrMin= 6.97D-02
 ErrMax= 6.97D-02  0.00D+00 EMaxC= 1.00D-01 BMatC= 8.84D-02 BMatP= 8.84D-02
 IDIUse=3 WtCom= 3.03D-01 WtEn= 6.97D-01
 Coeff-Com:  0.100D+01
 Coeff-En:   0.100D+01
 Coeff:      0.100D+01
 Gap=     0.041 Goal=   None    Shift=    0.000
 GapD=    0.041 DampG=0.250 DampE=0.500 DampFc=0.2500 IDamp=-1.
 Damping current iteration by 2.50D-01
 RMSDP=1.03D-02 MaxDP=1.91D-01              OVMax= 3.78D-01

 Cycle   2  Pass 1  IDiag  1:
 RMSU=  2.52D-03    CP:  9.75D-01
 E= -76.3585295409285     Delta-E=       -0.021999796855 Rises=F Damp=T
 DIIS: error= 7.03D-03 at cycle   2 NSaved=   2.
 NSaved= 2 IEnMin= 2 EnMin= -76.3585295409285     IErMin= 2 ErrMin= 7.03D-03
 ErrMax= 7.03D-03  0.00D+00 EMaxC= 1.00D-01 BMatC= 2.33D-03 BMatP= 8.84D-02
 IDIUse=3 WtCom= 9.30D-01 WtEn= 7.03D-02
 Coeff-Com: -0.711D-01 0.107D+01
 Coeff-En:   0.252D+00 0.748D+00
 Coeff:     -0.484D-01 0.105D+01
 Gap=     0.161 Goal=   None    Shift=    0.000
 RMSDP=9.98D-04 MaxDP=1.26D-02 DE=-2.20D-02 OVMax= 2.83D-01

 Cycle   3  Pass 1  IDiag  1:
 RMSU=  9.86D-04    CP:  9.77D-01  1.06D+00
 E= -76.4102638981052     Delta-E=       -0.051734357177 Rises=F Damp=F
 DIIS: error= 4.56D-03 at cycle   3 NSaved=   3.
 NSaved= 3 IEnMin= 3 EnMin= -76.4102638981052     IErMin= 3 ErrMin= 4.56D-03
 ErrMax= 4.56D-03  0.00D+00 EMaxC= 1.00D-01 BMatC= 5.13D-04 BMatP= 2.33D-03
 IDIUse=3 WtCom= 9.54D-01 WtEn= 4.56D-02
 Coeff-Com:  0.639D-01 0.298D-01 0.906D+00
 Coeff-En:   0.000D+00 0.000D+00 0.100D+01
 Coeff:      0.610D-01 0.285D-01 0.911D+00
 Gap=     0.190 Goal=   None    Shift=    0.000
 RMSDP=2.15D-04 MaxDP=2.80D-03 DE=-5.17D-02 OVMax= 7.53D-03

 Cycle   4  Pass 1  IDiag  1:
 RMSU=  1.16D-04    CP:  9.78D-01  9.89D-01  9.79D-01
 E= -76.4106482699015     Delta-E=       -0.000384371796 Rises=F Damp=F
 DIIS: error= 6.34D-04 at cycle   4 NSaved=   4.
 NSaved= 4 IEnMin= 4 EnMin= -76.4106482699015     IErMin= 4 ErrMin= 6.34D-04
 ErrMax= 6.34D-04  0.00D+00 EMaxC= 1.00D-01 BMatC= 8.07D-06 BMatP= 5.13D-04
 IDIUse=3 WtCom= 9.94D-01 WtEn= 6.34D-03
 Coeff-Com:  0.220D-01-0.227D-01 0.260D+00 0.741D+00
 Coeff-En:   0.000D+00 0.000D+00 0.000D+00 0.100D+01
 Coeff:      0.219D-01-0.225D-01 0.258D+00 0.743D+00
 Gap=     0.190 Goal=   None    Shift=    0.000
 RMSDP=2.38D-05 MaxDP=2.44D-04 DE=-3.84D-04 OVMax= 7.38D-04

 Cycle   5  Pass 1  IDiag  1:
 RMSU=  1.58D-05    CP:  9.78D-01  9.92D-01  9.83D-01  8.61D-01
 E= -76.4106538645824     Delta-E=       -0.000005594681 Rises=F Damp=F
 DIIS: error= 1.77D-04 at cycle   5 NSaved=   5.
 NSaved= 5 IEnMin= 5 EnMin= -76.4106538645824     IErMin= 5 ErrMin= 1.77D-04
 ErrMax= 1.77D-04  0.00D+00 EMaxC= 1.00D-01 BMatC= 6.19D-07 BMatP= 8.07D-06
 IDIUse=3 WtCom= 9.98D-01 WtEn= 1.77D-03
 Coeff-Com:  0.407D-02-0.377D-02 0.178D-01 0.814D-01 0.900D+00
 Coeff-En:   0.000D+00 0.000D+00 0.000D+00 0.000D+00 0.100D+01
 Coeff:      0.407D-02-0.377D-02 0.178D-01 0.812D-01 0.901D+00
 Gap=     0.190 Goal=   None    Shift=    0.000
 RMSDP=7.40D-06 MaxDP=1.28D-04 DE=-5.59D-06 OVMax= 2.59D-04

 Cycle   6  Pass 1  IDiag  1:
 RMSU=  1.77D-06    CP:  9.78D-01  9.89D-01  9.82D-01  8.61D-01  9.87D-01
 E= -76.4106543520548     Delta-E=       -0.000000487472 Rises=F Damp=F
 DIIS: error= 1.61D-05 at cycle   6 NSaved=   6.
 NSaved= 6 IEnMin= 6 EnMin= -76.4106543520548     IErMin= 6 ErrMin= 1.61D-05
 ErrMax= 1.61D-05  0.00D+00 EMaxC= 1.00D-01 BMatC= 4.94D-09 BMatP= 6.19D-07
 IDIUse=1 WtCom= 1.00D+00 WtEn= 0.00D+00
 Coeff-Com:  0.237D-03-0.146D-03-0.300D-03 0.717D-03 0.537D-02 0.994D+00
 Coeff:      0.237D-03-0.146D-03-0.300D-03 0.717D-03 0.537D-02 0.994D+00
 Gap=     0.190 Goal=   None    Shift=    0.000
 RMSDP=7.01D-07 MaxDP=8.44D-06 DE=-4.87D-07 OVMax= 2.53D-05

 Cycle   7  Pass 1  IDiag  1:
 RMSU=  2.13D-07    CP:  9.78D-01  9.89D-01  9.81D-01  8.62D-01  9.87D-01
                    CP:  9.99D-01
 E= -76.4106543561220     Delta-E=       -0.000000004067 Rises=F Damp=F
 DIIS: error= 3.13D-07 at cycle   7 NSaved=   7.
 NSaved= 7 IEnMin= 7 EnMin= -76.4106543561220     IErMin= 7 ErrMin= 3.13D-07
 ErrMax= 3.13D-07  0.00D+00 EMaxC= 1.00D-01 BMatC= 3.05D-12 BMatP= 4.94D-09
 IDIUse=1 WtCom= 1.00D+00 WtEn= 0.00D+00
 Coeff-Com:  0.746D-05-0.958D-05 0.440D-04 0.133D-04-0.385D-02 0.683D-01
 Coeff-Com:  0.935D+00
 Coeff:      0.746D-05-0.958D-05 0.440D-04 0.133D-04-0.385D-02 0.683D-01
 Coeff:      0.935D+00
 Gap=     0.190 Goal=   None    Shift=    0.000
 RMSDP=3.76D-08 MaxDP=5.12D-07 DE=-4.07D-09 OVMax= 1.85D-06

 Cycle   8  Pass 1  IDiag  1:
 RMSU=  1.87D-08    CP:  9.78D-01  9.89D-01  9.81D-01  8.62D-01  9.87D-01
                    CP:  1.01D+00  9.81D-01
 E= -76.4106543561258     Delta-E=       -0.000000000004 Rises=F Damp=F
 DIIS: error= 2.82D-07 at cycle   8 NSaved=   8.
 NSaved= 8 IEnMin= 8 EnMin= -76.4106543561258     IErMin= 8 ErrMin= 2.82D-07
 ErrMax= 2.82D-07  0.00D+00 EMaxC= 1.00D-01 BMatC= 1.28D-12 BMatP= 3.05D-12
 IDIUse=1 WtCom= 1.00D+00 WtEn= 0.00D+00
 Coeff-Com:  0.170D-05-0.229D-05 0.265D-04 0.243D-04-0.616D-03-0.817D-02
 Coeff-Com:  0.108D+00 0.900D+00
 Coeff:      0.170D-05-0.229D-05 0.265D-04 0.243D-04-0.616D-03-0.817D-02
 Coeff:      0.108D+00 0.900D+00
 Gap=     0.190 Goal=   None    Shift=    0.000
 RMSDP=1.08D-08 MaxDP=1.43D-07 DE=-3.81D-12 OVMax= 4.69D-07

 Cycle   9  Pass 1  IDiag  1:
 RMSU=  1.03D-09    CP:  9.78D-01  9.89D-01  9.81D-01  8.62D-01  9.87D-01
                    CP:  1.01D+00  9.97D-01  9.31D-01
 E= -76.4106543561266     Delta-E=       -0.000000000001 Rises=F Damp=F
 DIIS: error= 1.45D-08 at cycle   9 NSaved=   9.
 NSaved= 9 IEnMin= 9 EnMin= -76.4106543561266     IErMin= 9 ErrMin= 1.45D-08
 ErrMax= 1.45D-08  0.00D+00 EMaxC= 1.00D-01 BMatC= 4.08D-15 BMatP= 1.28D-12
 IDIUse=1 WtCom= 1.00D+00 WtEn= 0.00D+00
 Coeff-Com:  0.115D-06-0.572D-07 0.873D-06 0.427D-06-0.386D-04-0.315D-03
 Coeff-Com: -0.229D-02 0.250D-03 0.100D+01
 Coeff:      0.115D-06-0.572D-07 0.873D-06 0.427D-06-0.386D-04-0.315D-03
 Coeff:     -0.229D-02 0.250D-03 0.100D+01
 Gap=     0.190 Goal=   None    Shift=    0.000
 RMSDP=6.18D-10 MaxDP=8.92D-09 DE=-8.53D-13 OVMax= 2.00D-08

 Error on total polarization charges =  0.00310
 SCF Done:  E(RB-P86) =  -76.4106543561     A.U. after    9 cycles
            NFock=  9  Conv=0.62D-09     -V/T= 2.0098
 KE= 7.566799441309D+01 PE=-1.953398833045D+02 EE= 3.593477537097D+01
 Leave Link  502 at Tue Jan  9 18:57:28 2018, MaxMem=  4194304000 cpu:        45.5
 (Enter /home/chemsoft/gaussian/g09e01/g09/l508.exe)
 QCSCF skips out because SCF is already converged.
 Leave Link  508 at Tue Jan  9 18:57:28 2018, MaxMem=  4194304000 cpu:         0.0
 (Enter /home/chemsoft/gaussian/g09e01/g09/l601.exe)
 Copying SCF densities to generalized density rwf, IOpCl= 0 IROHF=0.

 **********************************************************************

            Population analysis using the SCF density.

 **********************************************************************

 Orbital symmetries:
       Occupied  (A1) (A1) (B2) (A1) (B1)
       Virtual   (A1) (B2) (A1) (B2) (A1) (B1) (B2) (A1) (A2) (A1)
                 (B1) (B2) (A1) (B2) (B1) (A2) (A1) (A1) (B2) (B2)
                 (A1) (B1) (A1) (B2) (A1) (B1) (A2) (A1) (B2) (B2)
                 (A2) (A1) (B1) (A2) (B1) (A1) (B2) (B2) (A1) (A1)
                 (B2) (B1) (A1) (B1) (A2) (B2) (B1) (B2) (A1) (A2)
                 (A1) (B2) (A1) (A1)
 The electronic state is 1-A1.
 Alpha  occ. eigenvalues --  -18.79342  -0.85275  -0.41911  -0.32194  -0.24919
 Alpha virt. eigenvalues --   -0.05895   0.00757   0.26937   0.27828   0.37577
 Alpha virt. eigenvalues --    0.38717   0.47085   0.50279   0.58589   0.63673
 Alpha virt. eigenvalues --    0.71272   0.82872   1.00992   1.05138   1.57316
 Alpha virt. eigenvalues --    1.61516   1.67320   1.83233   1.89971   2.28785
 Alpha virt. eigenvalues --    2.30316   2.38653   2.56392   2.78035   2.80337
 Alpha virt. eigenvalues --    3.05400   3.07953   3.08920   3.10014   3.18345
 Alpha virt. eigenvalues --    3.42026   3.49255   3.50630   3.64337   3.71872
 Alpha virt. eigenvalues --    3.72232   3.76981   4.01922   4.05670   4.58550
 Alpha virt. eigenvalues --    4.65483   5.14445   5.28564   5.64198   5.67023
 Alpha virt. eigenvalues --    5.91820   6.30746   6.32982   6.35930   6.45282
 Alpha virt. eigenvalues --    6.51827   7.01707   7.20002  42.84250
     Molecular Orbital Coefficients:
                           1         2         3         4         5
                        (A1)--O   (A1)--O   (B2)--O   (A1)--O   (B1)--O
     Eigenvalues --   -18.79342  -0.85275  -0.41911  -0.32194  -0.24919
   1 1   O  1S          0.43581  -0.10208   0.00000  -0.03193   0.00000
   2        2S          0.63864  -0.23878   0.00000  -0.07604   0.00000
   3        3S          0.03589   0.35544   0.00000   0.12408   0.00000
   4        4S         -0.02282   0.46251   0.00000   0.14791   0.00000
   5        5S          0.00583   0.19469   0.00000   0.21544   0.00000
   6        6PX         0.00000   0.00000   0.00000   0.00000   0.48076
   7        6PY         0.00000   0.00000   0.36884   0.00000   0.00000
   8        6PZ        -0.00168  -0.05983   0.00000   0.40411   0.00000
   9        7PX         0.00000   0.00000   0.00000   0.00000   0.37455
  10        7PY         0.00000   0.00000   0.28978   0.00000   0.00000
  11        7PZ         0.00312  -0.05285   0.00000   0.31182   0.00000
  12        8PX         0.00000   0.00000   0.00000   0.00000   0.33833
  13        8PY         0.00000   0.00000   0.14292   0.00000   0.00000
  14        8PZ        -0.00020  -0.00820   0.00000   0.22878   0.00000
  15        9D 0        0.00003   0.00075   0.00000  -0.00341   0.00000
  16        9D+1        0.00000   0.00000   0.00000   0.00000  -0.00361
  17        9D-1        0.00000   0.00000  -0.00783   0.00000   0.00000
  18        9D+2       -0.00032  -0.00307   0.00000   0.00188   0.00000
  19        9D-2        0.00000   0.00000   0.00000   0.00000   0.00000
  20       10D 0       -0.00004   0.00217   0.00000  -0.01372   0.00000
  21       10D+1        0.00000   0.00000   0.00000   0.00000  -0.01534
  22       10D-1        0.00000   0.00000  -0.01703   0.00000   0.00000
  23       10D+2        0.00135  -0.00963   0.00000   0.00096   0.00000
  24       10D-2        0.00000   0.00000   0.00000   0.00000   0.00000
  25       11F 0       -0.00022   0.00072   0.00000   0.00027   0.00000
  26       11F+1        0.00000   0.00000   0.00000   0.00000   0.00135
  27       11F-1        0.00000   0.00000   0.00040   0.00000   0.00000
  28       11F+2       -0.00044   0.00189   0.00000  -0.00285   0.00000
  29       11F-2        0.00000   0.00000   0.00000   0.00000   0.00000
  30       11F+3        0.00000   0.00000   0.00000   0.00000  -0.00346
  31       11F-3        0.00000   0.00000  -0.00327   0.00000   0.00000
  32 2   H  1S          0.00002   0.06004   0.12867  -0.09069   0.00000
  33        2S          0.00262   0.06465   0.20366  -0.15889   0.00000
  34        3S         -0.00104   0.00827   0.08764  -0.07908   0.00000
  35        4PX         0.00000   0.00000   0.00000   0.00000   0.00583
  36        4PY        -0.00049  -0.00697  -0.00517   0.00520   0.00000
  37        4PZ         0.00034   0.00467   0.00696   0.00039   0.00000
  38        5PX         0.00000   0.00000   0.00000   0.00000   0.02815
  39        5PY        -0.00147  -0.00989  -0.00823   0.01819   0.00000
  40        5PZ         0.00104   0.00485   0.01524   0.01382   0.00000
  41        6D 0        0.00001  -0.00019   0.00170   0.00222   0.00000
  42        6D+1        0.00000   0.00000   0.00000   0.00000   0.00251
  43        6D-1       -0.00039  -0.00196  -0.00390   0.00053   0.00000
  44        6D+2       -0.00031  -0.00161  -0.00162   0.00314   0.00000
  45        6D-2        0.00000   0.00000   0.00000   0.00000  -0.00392
  46 3   H  1S          0.00002   0.06004  -0.12867  -0.09069   0.00000
  47        2S          0.00262   0.06465  -0.20366  -0.15889   0.00000
  48        3S         -0.00104   0.00827  -0.08764  -0.07908   0.00000
  49        4PX         0.00000   0.00000   0.00000   0.00000   0.00583
  50        4PY         0.00049   0.00697  -0.00517  -0.00520   0.00000
  51        4PZ         0.00034   0.00467  -0.00696   0.00039   0.00000
  52        5PX         0.00000   0.00000   0.00000   0.00000   0.02815
  53        5PY         0.00147   0.00989  -0.00823  -0.01819   0.00000
  54        5PZ         0.00104   0.00485  -0.01524   0.01382   0.00000
  55        6D 0        0.00001  -0.00019  -0.00170   0.00222   0.00000
  56        6D+1        0.00000   0.00000   0.00000   0.00000   0.00251
  57        6D-1        0.00039   0.00196  -0.00390  -0.00053   0.00000
  58        6D+2       -0.00031  -0.00161   0.00162   0.00314   0.00000
  59        6D-2        0.00000   0.00000   0.00000   0.00000   0.00392
                           6         7         8         9        10
                        (A1)--V   (B2)--V   (A1)--V   (B2)--V   (A1)--V
     Eigenvalues --    -0.05895   0.00757   0.26937   0.27828   0.37577
   1 1   O  1S         -0.03612   0.00000  -0.01457   0.00000   0.02386
   2        2S         -0.08779   0.00000  -0.03345   0.00000   0.04986
   3        3S          0.16509   0.00000   0.04100   0.00000   0.03198
   4        4S          0.13420   0.00000   0.24854   0.00000  -0.59320
   5        5S          0.68062   0.00000  -0.92010   0.00000  -0.17032
   6        6PX         0.00000   0.00000   0.00000   0.00000   0.00000
   7        6PY         0.00000  -0.34517   0.00000   0.11804   0.00000
   8        6PZ        -0.25306   0.00000  -0.16196   0.00000  -0.28944
   9        7PX         0.00000   0.00000   0.00000   0.00000   0.00000
  10        7PY         0.00000  -0.26679   0.00000   0.10407   0.00000
  11        7PZ        -0.21029   0.00000  -0.14220   0.00000  -0.48724
  12        8PX         0.00000   0.00000   0.00000   0.00000   0.00000
  13        8PY         0.00000  -0.54313   0.00000   0.16077   0.00000
  14        8PZ        -0.33814   0.00000   0.23384   0.00000   1.35295
  15        9D 0        0.00195   0.00000   0.00564   0.00000   0.00275
  16        9D+1        0.00000   0.00000   0.00000   0.00000   0.00000
  17        9D-1        0.00000  -0.00380   0.00000   0.01443   0.00000
  18        9D+2        0.00353   0.00000   0.00601   0.00000  -0.01143
  19        9D-2        0.00000   0.00000   0.00000   0.00000   0.00000
  20       10D 0        0.01105   0.00000  -0.00513   0.00000  -0.01354
  21       10D+1        0.00000   0.00000   0.00000   0.00000   0.00000
  22       10D-1        0.00000  -0.00348   0.00000   0.02574   0.00000
  23       10D+2        0.00183   0.00000   0.06216   0.00000   0.06073
  24       10D-2        0.00000   0.00000   0.00000   0.00000   0.00000
  25       11F 0       -0.00047   0.00000  -0.00158   0.00000  -0.00491
  26       11F+1        0.00000   0.00000   0.00000   0.00000   0.00000
  27       11F-1        0.00000   0.00144   0.00000  -0.00010   0.00000
  28       11F+2        0.00090   0.00000  -0.00476   0.00000  -0.00854
  29       11F-2        0.00000   0.00000   0.00000   0.00000   0.00000
  30       11F+3        0.00000   0.00000   0.00000   0.00000   0.00000
  31       11F-3        0.00000   0.00174   0.00000  -0.00126   0.00000
  32 2   H  1S         -0.10062   0.10049  -0.14334  -0.11759  -0.01198
  33        2S         -0.25313   0.25037  -0.74452  -0.96051   0.47216
  34        3S         -0.63111   0.89132   1.05790   1.28876   0.09112
  35        4PX         0.00000   0.00000   0.00000   0.00000   0.00000
  36        4PY        -0.01260   0.01067   0.01531   0.01190   0.00473
  37        4PZ         0.00533  -0.01049  -0.00356  -0.00831  -0.00776
  38        5PX         0.00000   0.00000   0.00000   0.00000   0.00000
  39        5PY        -0.00446   0.01098  -0.22970  -0.02209  -0.13095
  40        5PZ        -0.00274  -0.01753   0.01471   0.10261   0.22435
  41        6D 0       -0.00130  -0.00181  -0.00507   0.00162  -0.00505
  42        6D+1        0.00000   0.00000   0.00000   0.00000   0.00000
  43        6D-1       -0.00074   0.00086  -0.00432   0.00174  -0.01107
  44        6D+2       -0.00065  -0.00007  -0.00579  -0.00135  -0.01414
  45        6D-2        0.00000   0.00000   0.00000   0.00000   0.00000
  46 3   H  1S         -0.10062  -0.10049  -0.14334   0.11759  -0.01198
  47        2S         -0.25313  -0.25037  -0.74452   0.96051   0.47216
  48        3S         -0.63111  -0.89132   1.05790  -1.28876   0.09112
  49        4PX         0.00000   0.00000   0.00000   0.00000   0.00000
  50        4PY         0.01260   0.01067  -0.01531   0.01190  -0.00473
  51        4PZ         0.00533   0.01049  -0.00356   0.00831  -0.00776
  52        5PX         0.00000   0.00000   0.00000   0.00000   0.00000
  53        5PY         0.00446   0.01098   0.22970  -0.02209   0.13095
  54        5PZ        -0.00274   0.01753   0.01471  -0.10261   0.22435
  55        6D 0       -0.00130   0.00181  -0.00507  -0.00162  -0.00505
  56        6D+1        0.00000   0.00000   0.00000   0.00000   0.00000
  57        6D-1        0.00074   0.00086   0.00432   0.00174   0.01107
  58        6D+2       -0.00065   0.00007  -0.00579   0.00135  -0.01414
  59        6D-2        0.00000   0.00000   0.00000   0.00000   0.00000
                          11        12        13        14        15
                        (B1)--V   (B2)--V   (A1)--V   (A2)--V   (A1)--V
     Eigenvalues --     0.38717   0.47085   0.50279   0.58589   0.63673
   1 1   O  1S          0.00000   0.00000   0.04682   0.00000   0.01953
   2        2S          0.00000   0.00000   0.09742   0.00000   0.03991
   3        3S          0.00000   0.00000   0.07287   0.00000   0.04594
   4        4S          0.00000   0.00000  -1.89325   0.00000  -1.13814
   5        5S          0.00000   0.00000   3.41287   0.00000   2.90599
   6        6PX        -0.33600   0.00000   0.00000   0.00000   0.00000
   7        6PY         0.00000  -0.30468   0.00000   0.00000   0.00000
   8        6PZ         0.00000   0.00000   0.06538   0.00000   0.01755
   9        7PX        -0.68133   0.00000   0.00000   0.00000   0.00000
  10        7PY         0.00000  -0.44443   0.00000   0.00000   0.00000
  11        7PZ         0.00000   0.00000   0.02127   0.00000   0.02234
  12        8PX         1.13680   0.00000   0.00000   0.00000   0.00000
  13        8PY         0.00000   2.22518   0.00000   0.00000   0.00000
  14        8PZ         0.00000   0.00000  -0.51816   0.00000  -1.70289
  15        9D 0        0.00000   0.00000   0.00746   0.00000  -0.01856
  16        9D+1        0.00359   0.00000   0.00000   0.00000   0.00000
  17        9D-1        0.00000   0.02636   0.00000   0.00000   0.00000
  18        9D+2        0.00000   0.00000   0.01779   0.00000   0.00742
  19        9D-2        0.00000   0.00000   0.00000   0.01559   0.00000
  20       10D 0        0.00000   0.00000   0.01602   0.00000  -0.05997
  21       10D+1       -0.00734   0.00000   0.00000   0.00000   0.00000
  22       10D-1        0.00000  -0.13616   0.00000   0.00000   0.00000
  23       10D+2        0.00000   0.00000  -0.04093   0.00000  -0.03988
  24       10D-2        0.00000   0.00000   0.00000   0.06918   0.00000
  25       11F 0        0.00000   0.00000   0.00539   0.00000   0.00360
  26       11F+1       -0.00036   0.00000   0.00000   0.00000   0.00000
  27       11F-1        0.00000   0.00622   0.00000   0.00000   0.00000
  28       11F+2        0.00000   0.00000   0.00730   0.00000   0.01181
  29       11F-2        0.00000   0.00000   0.00000   0.00599   0.00000
  30       11F+3        0.00125   0.00000   0.00000   0.00000   0.00000
  31       11F-3        0.00000  -0.00893   0.00000   0.00000   0.00000
  32 2   H  1S          0.00000   0.06113   0.02918   0.00000   0.01123
  33        2S          0.00000  -0.43678  -0.41741   0.00000  -1.08397
  34        3S          0.00000  -1.18786  -0.73141   0.00000  -0.35848
  35        4PX        -0.00300   0.00000   0.00000  -0.04638   0.00000
  36        4PY         0.00000  -0.00293   0.00857   0.00000  -0.04133
  37        4PZ         0.00000   0.00271   0.02003   0.00000  -0.03570
  38        5PX         0.08527   0.00000   0.00000   0.73810   0.00000
  39        5PY         0.00000   0.31636  -0.05300   0.00000   0.64957
  40        5PZ         0.00000  -0.13615  -0.38198   0.00000   0.42442
  41        6D 0        0.00000  -0.00269  -0.00481   0.00000   0.00844
  42        6D+1       -0.00597   0.00000   0.00000   0.00759   0.00000
  43        6D-1        0.00000   0.02804   0.01058   0.00000   0.00077
  44        6D+2        0.00000   0.01048   0.00315   0.00000   0.03323
  45        6D-2        0.00685   0.00000   0.00000   0.00039   0.00000
  46 3   H  1S          0.00000  -0.06113   0.02918   0.00000   0.01123
  47        2S          0.00000   0.43678  -0.41741   0.00000  -1.08397
  48        3S          0.00000   1.18786  -0.73141   0.00000  -0.35848
  49        4PX        -0.00300   0.00000   0.00000   0.04638   0.00000
  50        4PY         0.00000  -0.00293  -0.00857   0.00000   0.04133
  51        4PZ         0.00000  -0.00271   0.02003   0.00000  -0.03570
  52        5PX         0.08527   0.00000   0.00000  -0.73810   0.00000
  53        5PY         0.00000   0.31636   0.05300   0.00000  -0.64957
  54        5PZ         0.00000   0.13615  -0.38198   0.00000   0.42442
  55        6D 0        0.00000   0.00269  -0.00481   0.00000   0.00844
  56        6D+1       -0.00597   0.00000   0.00000  -0.00759   0.00000
  57        6D-1        0.00000   0.02804  -0.01058   0.00000  -0.00077
  58        6D+2        0.00000  -0.01048   0.00315   0.00000   0.03323
  59        6D-2       -0.00685   0.00000   0.00000   0.00039   0.00000
                          16        17        18        19        20
                        (B1)--V   (B2)--V   (A1)--V   (B2)--V   (B1)--V
     Eigenvalues --     0.71272   0.82872   1.00992   1.05138   1.57316
   1 1   O  1S          0.00000   0.00000  -0.01992   0.00000   0.00000
   2        2S          0.00000   0.00000  -0.04136   0.00000   0.00000
   3        3S          0.00000   0.00000  -0.09589   0.00000   0.00000
   4        4S          0.00000   0.00000   0.59712   0.00000   0.00000
   5        5S          0.00000   0.00000   2.88751   0.00000   0.00000
   6        6PX         0.00913   0.00000   0.00000   0.00000   0.02549
   7        6PY         0.00000  -0.00533   0.00000   0.17301   0.00000
   8        6PZ         0.00000   0.00000  -0.15480   0.00000   0.00000
   9        7PX        -0.09153   0.00000   0.00000   0.00000   0.01609
  10        7PY         0.00000  -0.03226   0.00000   0.90758   0.00000
  11        7PZ         0.00000   0.00000  -0.75335   0.00000   0.00000
  12        8PX         0.89956   0.00000   0.00000   0.00000  -0.38532
  13        8PY         0.00000   1.32713   0.00000   0.86192   0.00000
  14        8PZ         0.00000   0.00000  -0.77375   0.00000   0.00000
  15        9D 0        0.00000   0.00000   0.00021   0.00000   0.00000
  16        9D+1        0.01117   0.00000   0.00000   0.00000  -0.00033
  17        9D-1        0.00000   0.00556   0.00000   0.03516   0.00000
  18        9D+2        0.00000   0.00000   0.02829   0.00000   0.00000
  19        9D-2        0.00000   0.00000   0.00000   0.00000   0.00000
  20       10D 0        0.00000   0.00000  -0.02991   0.00000   0.00000
  21       10D+1        0.10836   0.00000   0.00000   0.00000   1.02741
  22       10D-1        0.00000  -0.04332   0.00000  -0.10441   0.00000
  23       10D+2        0.00000   0.00000  -0.03491   0.00000   0.00000
  24       10D-2        0.00000   0.00000   0.00000   0.00000   0.00000
  25       11F 0        0.00000   0.00000   0.01742   0.00000   0.00000
  26       11F+1       -0.00053   0.00000   0.00000   0.00000  -0.00954
  27       11F-1        0.00000   0.00064   0.00000   0.00986   0.00000
  28       11F+2        0.00000   0.00000   0.03201   0.00000   0.00000
  29       11F-2        0.00000   0.00000   0.00000   0.00000   0.00000
  30       11F+3       -0.00624   0.00000   0.00000   0.00000  -0.01134
  31       11F-3        0.00000  -0.00402   0.00000  -0.01877   0.00000
  32 2   H  1S          0.00000  -0.00051  -0.05039  -0.08938   0.00000
  33        2S          0.00000  -0.55990  -1.02497  -0.50552   0.00000
  34        3S          0.00000  -0.20464  -0.70075  -0.94682   0.00000
  35        4PX         0.05615   0.00000   0.00000   0.00000  -0.03208
  36        4PY         0.00000   0.02626  -0.06956  -0.04304   0.00000
  37        4PZ         0.00000   0.04270   0.03597   0.04139   0.00000
  38        5PX        -0.85374   0.00000   0.00000   0.00000   0.43830
  39        5PY         0.00000  -0.42499   1.31068   1.13704   0.00000
  40        5PZ         0.00000  -0.82429  -0.83653  -0.87799   0.00000
  41        6D 0        0.00000   0.00355  -0.00814   0.00853   0.00000
  42        6D+1        0.00591   0.00000   0.00000   0.00000   0.02293
  43        6D-1        0.00000   0.00453   0.03605   0.05175   0.00000
  44        6D+2        0.00000   0.01567   0.05325   0.02155   0.00000
  45        6D-2        0.01156   0.00000   0.00000   0.00000   0.06811
  46 3   H  1S          0.00000   0.00051  -0.05039   0.08938   0.00000
  47        2S          0.00000   0.55990  -1.02497   0.50552   0.00000
  48        3S          0.00000   0.20464  -0.70075   0.94682   0.00000
  49        4PX         0.05615   0.00000   0.00000   0.00000  -0.03208
  50        4PY         0.00000   0.02626   0.06956  -0.04304   0.00000
  51        4PZ         0.00000  -0.04270   0.03597  -0.04139   0.00000
  52        5PX        -0.85374   0.00000   0.00000   0.00000   0.43830
  53        5PY         0.00000  -0.42499  -1.31068   1.13704   0.00000
  54        5PZ         0.00000   0.82429  -0.83653   0.87799   0.00000
  55        6D 0        0.00000  -0.00355  -0.00814  -0.00853   0.00000
  56        6D+1        0.00591   0.00000   0.00000   0.00000   0.02293
  57        6D-1        0.00000   0.00453  -0.03605   0.05175   0.00000
  58        6D+2        0.00000  -0.01567   0.05325  -0.02155   0.00000
  59        6D-2       -0.01156   0.00000   0.00000   0.00000  -0.06811
                          21        22        23        24        25
                        (A2)--V   (A1)--V   (A1)--V   (B2)--V   (B2)--V
     Eigenvalues --     1.61516   1.67320   1.83233   1.89971   2.28785
   1 1   O  1S          0.00000   0.00113  -0.00834   0.00000   0.00000
   2        2S          0.00000   0.00077  -0.02320   0.00000   0.00000
   3        3S          0.00000   0.04345   0.06278   0.00000   0.00000
   4        4S          0.00000  -0.30185  -0.31769   0.00000   0.00000
   5        5S          0.00000   0.67010   2.89350   0.00000   0.00000
   6        6PX         0.00000   0.00000   0.00000   0.00000   0.00000
   7        6PY         0.00000   0.00000   0.00000   0.30761   0.26719
   8        6PZ         0.00000  -0.01150  -0.33001   0.00000   0.00000
   9        7PX         0.00000   0.00000   0.00000   0.00000   0.00000
  10        7PY         0.00000   0.00000   0.00000   0.46971  -0.92064
  11        7PZ         0.00000   0.07260  -0.03493   0.00000   0.00000
  12        8PX         0.00000   0.00000   0.00000   0.00000   0.00000
  13        8PY         0.00000   0.00000   0.00000   1.77415  -0.20914
  14        8PZ         0.00000  -0.61004  -1.11924   0.00000   0.00000
  15        9D 0        0.00000   0.00929  -0.00353   0.00000   0.00000
  16        9D+1        0.00000   0.00000   0.00000   0.00000   0.00000
  17        9D-1        0.00000   0.00000   0.00000   0.01214  -0.03617
  18        9D+2        0.00000   0.00511   0.00159   0.00000   0.00000
  19        9D-2        0.00490   0.00000   0.00000   0.00000   0.00000
  20       10D 0        0.00000   1.03921   0.03581   0.00000   0.00000
  21       10D+1        0.00000   0.00000   0.00000   0.00000   0.00000
  22       10D-1        0.00000   0.00000   0.00000  -1.47861   0.02436
  23       10D+2        0.00000   0.07010  -1.22280   0.00000   0.00000
  24       10D-2        1.04940   0.00000   0.00000   0.00000   0.00000
  25       11F 0        0.00000  -0.01396  -0.00221   0.00000   0.00000
  26       11F+1        0.00000   0.00000   0.00000   0.00000   0.00000
  27       11F-1        0.00000   0.00000   0.00000   0.03572  -0.05048
  28       11F+2        0.00000  -0.01630   0.00859   0.00000   0.00000
  29       11F-2        0.00281   0.00000   0.00000   0.00000   0.00000
  30       11F+3        0.00000   0.00000   0.00000   0.00000   0.00000
  31       11F-3        0.00000   0.00000   0.00000  -0.02442   0.06584
  32 2   H  1S          0.00000  -0.17519  -0.17637   0.23130  -1.07225
  33        2S          0.00000  -0.04649  -1.10575  -1.76832   1.76470
  34        3S          0.00000  -0.16896  -0.48924  -0.45648  -0.53111
  35        4PX         0.05265   0.00000   0.00000   0.00000   0.00000
  36        4PY         0.00000  -0.03450  -0.00821  -0.06751  -0.02269
  37        4PZ         0.00000  -0.05272   0.06277  -0.00288   0.00131
  38        5PX        -0.42168   0.00000   0.00000   0.00000   0.00000
  39        5PY         0.00000   0.34975   0.69874   0.94553  -0.33871
  40        5PZ         0.00000   0.37051  -0.56999  -0.67467   0.33865
  41        6D 0        0.00000  -0.04033   0.06942  -0.05274  -0.05065
  42        6D+1        0.06830   0.00000   0.00000   0.00000   0.00000
  43        6D-1        0.00000   0.03609   0.05746   0.09092  -0.02400
  44        6D+2        0.00000  -0.05655   0.02427   0.04377   0.05121
  45        6D-2       -0.02496   0.00000   0.00000   0.00000   0.00000
  46 3   H  1S          0.00000  -0.17519  -0.17637  -0.23130   1.07225
  47        2S          0.00000  -0.04649  -1.10575   1.76832  -1.76470
  48        3S          0.00000  -0.16896  -0.48924   0.45648   0.53111
  49        4PX        -0.05265   0.00000   0.00000   0.00000   0.00000
  50        4PY         0.00000   0.03450   0.00821  -0.06751  -0.02269
  51        4PZ         0.00000  -0.05272   0.06277   0.00288  -0.00131
  52        5PX         0.42168   0.00000   0.00000   0.00000   0.00000
  53        5PY         0.00000  -0.34975  -0.69874   0.94553  -0.33871
  54        5PZ         0.00000   0.37051  -0.56999   0.67467  -0.33865
  55        6D 0        0.00000  -0.04033   0.06942   0.05274   0.05065
  56        6D+1       -0.06830   0.00000   0.00000   0.00000   0.00000
  57        6D-1        0.00000  -0.03609  -0.05746   0.09092  -0.02400
  58        6D+2        0.00000  -0.05655   0.02427  -0.04377  -0.05121
  59        6D-2       -0.02496   0.00000   0.00000   0.00000   0.00000
                          26        27        28        29        30
                        (A1)--V   (B1)--V   (A1)--V   (B2)--V   (A1)--V
     Eigenvalues --     2.30316   2.38653   2.56392   2.78035   2.80337
   1 1   O  1S         -0.01107   0.00000  -0.08243   0.00000   0.09633
   2        2S         -0.04790   0.00000  -0.27390   0.00000   0.32500
   3        3S          0.49007   0.00000   1.70558   0.00000  -2.33997
   4        4S         -0.85631   0.00000  -2.38418   0.00000   3.60194
   5        5S         -2.21599   0.00000   2.91350   0.00000   0.23177
   6        6PX         0.00000  -1.14087   0.00000   0.00000   0.00000
   7        6PY         0.00000   0.00000   0.00000  -1.04048   0.00000
   8        6PZ         0.18129   0.00000   0.87517   0.00000   0.65847
   9        7PX         0.00000   1.48386   0.00000   0.00000   0.00000
  10        7PY         0.00000   0.00000   0.00000   2.08030   0.00000
  11        7PZ         0.28831   0.00000  -1.44164   0.00000  -1.44522
  12        8PX         0.00000  -0.66725   0.00000   0.00000   0.00000
  13        8PY         0.00000   0.00000   0.00000   0.09210   0.00000
  14        8PZ         1.26070   0.00000  -0.22596   0.00000  -0.09625
  15        9D 0       -0.01317   0.00000   0.00651   0.00000   0.00186
  16        9D+1        0.00000  -0.00173   0.00000   0.00000   0.00000
  17        9D-1        0.00000   0.00000   0.00000  -0.04944   0.00000
  18        9D+2       -0.00809   0.00000  -0.01155   0.00000  -0.03461
  19        9D-2        0.00000   0.00000   0.00000   0.00000   0.00000
  20       10D 0       -0.26376   0.00000  -0.00097   0.00000  -0.00929
  21       10D+1        0.00000   0.08443   0.00000   0.00000   0.00000
  22       10D-1        0.00000   0.00000   0.00000  -0.61518   0.00000
  23       10D+2        0.41508   0.00000  -0.45327   0.00000  -0.44597
  24       10D-2        0.00000   0.00000   0.00000   0.00000   0.00000
  25       11F 0       -0.06139   0.00000   0.00170   0.00000   0.01418
  26       11F+1        0.00000   0.00086   0.00000   0.00000   0.00000
  27       11F-1        0.00000   0.00000   0.00000  -0.01299   0.00000
  28       11F+2       -0.10017   0.00000   0.01021   0.00000   0.03007
  29       11F-2        0.00000   0.00000   0.00000   0.00000   0.00000
  30       11F+3        0.00000  -0.01525   0.00000   0.00000   0.00000
  31       11F-3        0.00000   0.00000   0.00000  -0.01478   0.00000
  32 2   H  1S         -1.09056   0.00000   0.19186  -0.17394  -0.04332
  33        2S          2.58753   0.00000  -1.05747  -0.75692  -1.01339
  34        3S         -0.14708   0.00000  -0.27182  -0.22241  -0.03829
  35        4PX         0.00000   0.09819   0.00000   0.00000   0.00000
  36        4PY         0.03856   0.00000  -0.03618  -0.20501  -0.30162
  37        4PZ        -0.03146   0.00000  -0.02740   0.25041   0.14265
  38        5PX         0.00000  -0.05156   0.00000   0.00000   0.00000
  39        5PY        -0.85072   0.00000   0.53770   0.81890   0.92158
  40        5PZ         0.36288   0.00000  -0.27955  -0.67569  -0.59463
  41        6D 0        0.03397   0.00000  -0.06511   0.08899  -0.05899
  42        6D+1        0.00000   0.09262   0.00000   0.00000   0.00000
  43        6D-1        0.03145   0.00000   0.01554   0.02210   0.07015
  44        6D+2       -0.04768   0.00000  -0.04282   0.08202   0.05835
  45        6D-2        0.00000  -0.09284   0.00000   0.00000   0.00000
  46 3   H  1S         -1.09056   0.00000   0.19186   0.17394  -0.04332
  47        2S          2.58753   0.00000  -1.05747   0.75692  -1.01339
  48        3S         -0.14708   0.00000  -0.27182   0.22241  -0.03829
  49        4PX         0.00000   0.09819   0.00000   0.00000   0.00000
  50        4PY        -0.03856   0.00000   0.03618  -0.20501   0.30162
  51        4PZ        -0.03146   0.00000  -0.02740  -0.25041   0.14265
  52        5PX         0.00000  -0.05156   0.00000   0.00000   0.00000
  53        5PY         0.85072   0.00000  -0.53770   0.81890  -0.92158
  54        5PZ         0.36288   0.00000  -0.27955   0.67569  -0.59463
  55        6D 0        0.03397   0.00000  -0.06511  -0.08899  -0.05899
  56        6D+1        0.00000   0.09262   0.00000   0.00000   0.00000
  57        6D-1       -0.03145   0.00000  -0.01554   0.02210  -0.07015
  58        6D+2       -0.04768   0.00000  -0.04282  -0.08202   0.05835
  59        6D-2        0.00000   0.09284   0.00000   0.00000   0.00000
                          31        32        33        34        35
                        (B1)--V   (A2)--V   (A1)--V   (B2)--V   (B2)--V
     Eigenvalues --     3.05400   3.07953   3.08920   3.10014   3.18345
   1 1   O  1S          0.00000   0.00000   0.01641   0.00000   0.00000
   2        2S          0.00000   0.00000   0.05791   0.00000   0.00000
   3        3S          0.00000   0.00000  -0.40877   0.00000   0.00000
   4        4S          0.00000   0.00000   0.56146   0.00000   0.00000
   5        5S          0.00000   0.00000  -0.10036   0.00000   0.00000
   6        6PX         0.13998   0.00000   0.00000   0.00000   0.00000
   7        6PY         0.00000   0.00000   0.00000  -0.08849  -0.26460
   8        6PZ         0.00000   0.00000   0.07776   0.00000   0.00000
   9        7PX        -0.25901   0.00000   0.00000   0.00000   0.00000
  10        7PY         0.00000   0.00000   0.00000   0.14001   0.52659
  11        7PZ         0.00000   0.00000  -0.12429   0.00000   0.00000
  12        8PX         0.13366   0.00000   0.00000   0.00000   0.00000
  13        8PY         0.00000   0.00000   0.00000   0.01497  -0.35541
  14        8PZ         0.00000   0.00000  -0.00457   0.00000   0.00000
  15        9D 0        0.00000   0.00000  -0.01004   0.00000   0.00000
  16        9D+1       -0.03525   0.00000   0.00000   0.00000   0.00000
  17        9D-1        0.00000   0.00000   0.00000   0.02697  -0.01595
  18        9D+2        0.00000   0.00000   0.03201   0.00000   0.00000
  19        9D-2        0.00000  -0.03188   0.00000   0.00000   0.00000
  20       10D 0        0.00000   0.00000  -0.18252   0.00000   0.00000
  21       10D+1       -0.11660   0.00000   0.00000   0.00000   0.00000
  22       10D-1        0.00000   0.00000   0.00000   0.00514   0.27726
  23       10D+2        0.00000   0.00000   0.05340   0.00000   0.00000
  24       10D-2        0.00000   0.06359   0.00000   0.00000   0.00000
  25       11F 0        0.00000   0.00000  -0.11567   0.00000   0.00000
  26       11F+1       -0.09988   0.00000   0.00000   0.00000   0.00000
  27       11F-1        0.00000   0.00000   0.00000  -0.04347   0.19688
  28       11F+2        0.00000   0.00000  -0.00940   0.00000   0.00000
  29       11F-2        0.00000   0.11624   0.00000   0.00000   0.00000
  30       11F+3       -0.11423   0.00000   0.00000   0.00000   0.00000
  31       11F-3        0.00000   0.00000   0.00000   0.09672   0.08530
  32 2   H  1S          0.00000   0.00000   0.14129   0.11151  -0.02831
  33        2S          0.00000   0.00000  -0.25817  -0.18339   0.11476
  34        3S          0.00000   0.00000   0.07216   0.06999   0.01047
  35        4PX         0.10637  -0.19821   0.00000   0.00000   0.00000
  36        4PY         0.00000   0.00000   0.14140   0.20484  -0.31569
  37        4PZ         0.00000   0.00000  -0.00085   0.03410  -0.23756
  38        5PX        -0.07336   0.08804   0.00000   0.00000   0.00000
  39        5PY         0.00000   0.00000  -0.00097  -0.07908   0.20189
  40        5PZ         0.00000   0.00000  -0.05465  -0.04320   0.10540
  41        6D 0        0.00000   0.00000   0.30622  -0.34666  -0.51362
  42        6D+1        0.62096   0.38050   0.00000   0.00000   0.00000
  43        6D-1        0.00000   0.00000   0.28873  -0.38075   0.12826
  44        6D+2        0.00000   0.00000  -0.52428   0.43027  -0.19050
  45        6D-2        0.25836   0.55465   0.00000   0.00000   0.00000
  46 3   H  1S          0.00000   0.00000   0.14129  -0.11151   0.02831
  47        2S          0.00000   0.00000  -0.25817   0.18339  -0.11476
  48        3S          0.00000   0.00000   0.07216  -0.06999  -0.01047
  49        4PX         0.10637   0.19821   0.00000   0.00000   0.00000
  50        4PY         0.00000   0.00000  -0.14140   0.20484  -0.31569
  51        4PZ         0.00000   0.00000  -0.00085  -0.03410   0.23756
  52        5PX        -0.07336  -0.08804   0.00000   0.00000   0.00000
  53        5PY         0.00000   0.00000   0.00097  -0.07908   0.20189
  54        5PZ         0.00000   0.00000  -0.05465   0.04320  -0.10540
  55        6D 0        0.00000   0.00000   0.30622   0.34666   0.51362
  56        6D+1        0.62096  -0.38050   0.00000   0.00000   0.00000
  57        6D-1        0.00000   0.00000  -0.28873  -0.38075   0.12826
  58        6D+2        0.00000   0.00000  -0.52428  -0.43027   0.19050
  59        6D-2       -0.25836   0.55465   0.00000   0.00000   0.00000
                          36        37        38        39        40
                        (A2)--V   (A1)--V   (B1)--V   (A2)--V   (B1)--V
     Eigenvalues --     3.42026   3.49255   3.50630   3.64337   3.71872
   1 1   O  1S          0.00000  -0.00250   0.00000   0.00000   0.00000
   2        2S          0.00000  -0.01048   0.00000   0.00000   0.00000
   3        3S          0.00000   0.07000   0.00000   0.00000   0.00000
   4        4S          0.00000   0.00708   0.00000   0.00000   0.00000
   5        5S          0.00000  -0.20383   0.00000   0.00000   0.00000
   6        6PX         0.00000   0.00000   0.30054   0.00000  -0.19609
   7        6PY         0.00000   0.00000   0.00000   0.00000   0.00000
   8        6PZ         0.00000   0.05248   0.00000   0.00000   0.00000
   9        7PX         0.00000   0.00000  -0.54301   0.00000   0.53361
  10        7PY         0.00000   0.00000   0.00000   0.00000   0.00000
  11        7PZ         0.00000  -0.01782   0.00000   0.00000   0.00000
  12        8PX         0.00000   0.00000   0.36755   0.00000   0.18493
  13        8PY         0.00000   0.00000   0.00000   0.00000   0.00000
  14        8PZ         0.00000   0.37132   0.00000   0.00000   0.00000
  15        9D 0        0.00000   0.01077   0.00000   0.00000   0.00000
  16        9D+1        0.00000   0.00000   0.00291   0.00000  -0.01260
  17        9D-1        0.00000   0.00000   0.00000   0.00000   0.00000
  18        9D+2        0.00000   0.01105   0.00000   0.00000   0.00000
  19        9D-2       -0.01089   0.00000   0.00000  -0.00503   0.00000
  20       10D 0        0.00000  -0.10783   0.00000   0.00000   0.00000
  21       10D+1        0.00000   0.00000   0.20390   0.00000  -0.42594
  22       10D-1        0.00000   0.00000   0.00000   0.00000   0.00000
  23       10D+2        0.00000   0.01422   0.00000   0.00000   0.00000
  24       10D-2       -0.36162   0.00000   0.00000   0.51364   0.00000
  25       11F 0        0.00000   0.09605   0.00000   0.00000   0.00000
  26       11F+1        0.00000   0.00000   0.09850   0.00000  -0.06973
  27       11F-1        0.00000   0.00000   0.00000   0.00000   0.00000
  28       11F+2        0.00000   0.03929   0.00000   0.00000   0.00000
  29       11F-2       -0.20440   0.00000   0.00000   0.09655   0.00000
  30       11F+3        0.00000   0.00000  -0.17867   0.00000   0.13219
  31       11F-3        0.00000   0.00000   0.00000   0.00000   0.00000
  32 2   H  1S          0.00000  -0.05856   0.00000   0.00000   0.00000
  33        2S          0.00000   0.23209   0.00000   0.00000   0.00000
  34        3S          0.00000  -0.03017   0.00000   0.00000   0.00000
  35        4PX         0.64472   0.00000   0.73380   0.59184   0.52851
  36        4PY         0.00000   0.41656   0.00000   0.00000   0.00000
  37        4PZ         0.00000   0.77639   0.00000   0.00000   0.00000
  38        5PX        -0.28692   0.00000  -0.41404  -0.53200  -0.56049
  39        5PY         0.00000  -0.30105   0.00000   0.00000   0.00000
  40        5PZ         0.00000  -0.50026   0.00000   0.00000   0.00000
  41        6D 0        0.00000  -0.14766   0.00000   0.00000   0.00000
  42        6D+1        0.44843   0.00000   0.02875  -0.43737  -0.28026
  43        6D-1        0.00000   0.04024   0.00000   0.00000   0.00000
  44        6D+2        0.00000  -0.01402   0.00000   0.00000   0.00000
  45        6D-2       -0.10393   0.00000  -0.35591   0.42275   0.58212
  46 3   H  1S          0.00000  -0.05856   0.00000   0.00000   0.00000
  47        2S          0.00000   0.23209   0.00000   0.00000   0.00000
  48        3S          0.00000  -0.03017   0.00000   0.00000   0.00000
  49        4PX        -0.64472   0.00000   0.73380  -0.59184   0.52851
  50        4PY         0.00000  -0.41656   0.00000   0.00000   0.00000
  51        4PZ         0.00000   0.77639   0.00000   0.00000   0.00000
  52        5PX         0.28692   0.00000  -0.41404   0.53200  -0.56049
  53        5PY         0.00000   0.30105   0.00000   0.00000   0.00000
  54        5PZ         0.00000  -0.50026   0.00000   0.00000   0.00000
  55        6D 0        0.00000  -0.14766   0.00000   0.00000   0.00000
  56        6D+1       -0.44843   0.00000   0.02875   0.43737  -0.28026
  57        6D-1        0.00000  -0.04024   0.00000   0.00000   0.00000
  58        6D+2        0.00000  -0.01402   0.00000   0.00000   0.00000
  59        6D-2       -0.10393   0.00000   0.35591   0.42275  -0.58212
                          41        42        43        44        45
                        (A1)--V   (B2)--V   (B2)--V   (A1)--V   (A1)--V
     Eigenvalues --     3.72232   3.76981   4.01922   4.05670   4.58550
   1 1   O  1S         -0.03815   0.00000   0.00000   0.01148   0.00073
   2        2S         -0.13185   0.00000   0.00000   0.03009   0.05086
   3        3S          0.85415   0.00000   0.00000  -0.06020  -1.25228
   4        4S         -0.89686   0.00000   0.00000  -0.28479   3.26851
   5        5S          1.66625   0.00000   0.00000  -0.29776   1.83292
   6        6PX         0.00000   0.00000   0.00000   0.00000   0.00000
   7        6PY         0.00000   0.12017   0.27617   0.00000   0.00000
   8        6PZ        -0.13356   0.00000   0.00000   0.32270   0.26128
   9        7PX         0.00000   0.00000   0.00000   0.00000   0.00000
  10        7PY         0.00000   0.12856   0.39336   0.00000   0.00000
  11        7PZ        -0.13144   0.00000   0.00000  -0.44805  -1.91043
  12        8PX         0.00000   0.00000   0.00000   0.00000   0.00000
  13        8PY         0.00000   0.56560   0.50180   0.00000   0.00000
  14        8PZ        -0.52201   0.00000   0.00000   0.05800  -0.59460
  15        9D 0        0.00536   0.00000   0.00000   0.05591   0.04949
  16        9D+1        0.00000   0.00000   0.00000   0.00000   0.00000
  17        9D-1        0.00000  -0.00341   0.10610   0.00000   0.00000
  18        9D+2       -0.00771   0.00000   0.00000  -0.00692   0.18686
  19        9D-2        0.00000   0.00000   0.00000   0.00000   0.00000
  20       10D 0        0.20700   0.00000   0.00000   0.65585   0.11743
  21       10D+1        0.00000   0.00000   0.00000   0.00000   0.00000
  22       10D-1        0.00000   0.05874  -0.21101   0.00000   0.00000
  23       10D+2        0.19383   0.00000   0.00000   0.45181  -0.92946
  24       10D-2        0.00000   0.00000   0.00000   0.00000   0.00000
  25       11F 0        0.14411   0.00000   0.00000   0.18885   0.01478
  26       11F+1        0.00000   0.00000   0.00000   0.00000   0.00000
  27       11F-1        0.00000   0.04339   0.14655   0.00000   0.00000
  28       11F+2        0.30080   0.00000   0.00000  -0.15627  -0.24985
  29       11F-2        0.00000   0.00000   0.00000   0.00000   0.00000
  30       11F+3        0.00000   0.00000   0.00000   0.00000   0.00000
[...]
    2     2     1.47     9.24673   0.75327      1   1   0   3     0      2
    3     2     1.46     8.93289   1.06711      1   0   0   4     0      2
    4     2     1.90     9.99373   0.00627      1   2   0   2     0      0
 ----------------------------------------------------------------------------

 Structure accepted: No low occupancy Lewis orbitals

 -------------------------------------------------------
   Core                      1.99999 (100.000% of   2)
   Valence Lewis             7.99374 ( 99.922% of   8)
  ==================      =============================
   Total Lewis               9.99373 ( 99.937% of  10)
  -----------------------------------------------------
   Valence non-Lewis         0.00002 (  0.000% of  10)
   Rydberg non-Lewis         0.00625 (  0.062% of  10)
  ==================      =============================
   Total non-Lewis           0.00627 (  0.063% of  10)
 -------------------------------------------------------


     (Occupancy)   Bond orbital / Coefficients / Hybrids
 ------------------ Lewis ------------------------------------------------------
   1. (1.99999) CR ( 1) O  1            s(100.00%)
                                         1.0000  0.0000  0.0000  0.0000  0.0000
                                         0.0000  0.0000  0.0000  0.0000  0.0000
                                         0.0000  0.0000  0.0000  0.0000  0.0000
                                         0.0000  0.0000  0.0000  0.0000  0.0000
                                         0.0000  0.0000  0.0000  0.0000  0.0000
                                         0.0000  0.0000  0.0000  0.0000  0.0000
                                         0.0000
   2. (1.99748) LP ( 1) O  1            s(  0.00%)p 1.00( 99.80%)d 0.00(  0.19%)
                                                  f 0.00(  0.01%)
                                         0.0000  0.0000  0.0000  0.0000  0.0000
                                         0.9986 -0.0277 -0.0015  0.0000  0.0000
                                         0.0000  0.0000  0.0000  0.0000  0.0000
                                         0.0000 -0.0440  0.0007  0.0000  0.0000
                                         0.0000  0.0000  0.0000  0.0000  0.0000
                                         0.0037  0.0000  0.0000  0.0000 -0.0087
                                         0.0000
   3. (1.99710) LP ( 2) O  1            s( 54.95%)p 0.82( 44.92%)d 0.00(  0.13%)
                                                  f 0.00(  0.00%)
                                         0.0000  0.7413  0.0066  0.0000  0.0000
                                         0.0000  0.0000  0.0000  0.0000  0.0000
                                         0.0000  0.6700 -0.0166  0.0054  0.0000
                                         0.0000  0.0000  0.0000  0.0000  0.0000
                                        -0.0119  0.0001 -0.0334  0.0007  0.0038
                                         0.0000  0.0000  0.0005  0.0000  0.0000
                                         0.0000
   4. (1.99958) BD ( 1) O  1- H  2
               ( 73.47%)   0.8572* O  1 s( 22.45%)p 3.44( 77.19%)d 0.02(  0.35%)
                                                  f 0.00(  0.01%)
                                         0.0000  0.4738 -0.0070  0.0000  0.0000
                                         0.0000  0.0000  0.0000  0.7048  0.0318
                                         0.0025 -0.5235 -0.0077  0.0061  0.0000
                                         0.0000  0.0000  0.0000 -0.0466 -0.0009
                                        -0.0242 -0.0001  0.0269 -0.0002  0.0005
                                         0.0000  0.0003  0.0069  0.0000  0.0000
                                        -0.0050
               ( 26.53%)   0.5150* H  2 s( 99.88%)p 0.00(  0.11%)d 0.00(  0.02%)
                                         0.9994  0.0001  0.0001  0.0000  0.0000
                                        -0.0016 -0.0217 -0.0075  0.0229  0.0000
                                         0.0000 -0.0102 -0.0083  0.0027
   5. (1.99958) BD ( 1) O  1- H  3
               ( 73.47%)   0.8572* O  1 s( 22.45%)p 3.44( 77.19%)d 0.02(  0.35%)
                                                  f 0.00(  0.01%)
                                         0.0000  0.4738 -0.0070  0.0000  0.0000
                                         0.0000  0.0000  0.0000 -0.7048 -0.0318
                                        -0.0025 -0.5235 -0.0077  0.0061  0.0000
                                         0.0000  0.0000  0.0000  0.0466  0.0009
                                        -0.0242 -0.0001  0.0269 -0.0002  0.0005
                                         0.0000 -0.0003  0.0069  0.0000  0.0000
                                         0.0050
               ( 26.53%)   0.5150* H  3 s( 99.88%)p 0.00(  0.11%)d 0.00(  0.02%)
                                         0.9994  0.0001  0.0001  0.0000  0.0000
                                         0.0016  0.0217 -0.0075  0.0229  0.0000
                                         0.0000  0.0102 -0.0083  0.0027
 ---------------- non-Lewis ----------------------------------------------------
   6. (0.00001) BD*( 1) O  1- H  2
               ( 26.53%)   0.5150* O  1 s( 22.45%)p 3.44( 77.19%)d 0.02(  0.35%)
                                                  f 0.00(  0.01%)
               ( 73.47%)  -0.8572* H  2 s( 99.88%)p 0.00(  0.11%)d 0.00(  0.02%)
   7. (0.00001) BD*( 1) O  1- H  3
               ( 26.53%)   0.5150* O  1 s( 22.45%)p 3.44( 77.19%)d 0.02(  0.35%)
                                                  f 0.00(  0.01%)
               ( 73.47%)  -0.8572* H  3 s( 99.88%)p 0.00(  0.11%)d 0.00(  0.02%)
   8. (0.00000) RY ( 1) O  1            s(  0.00%)p 1.00( 82.55%)d 0.19( 15.83%)
                                                  f 0.02(  1.62%)
   9. (0.00000) RY ( 2) O  1            s( 99.99%)p 0.00(  0.01%)d 0.00(  0.00%)
                                                  f 0.00(  0.00%)
  10. (0.00000) RY ( 3) O  1            s(100.00%)
  11. (0.00000) RY ( 4) O  1            s(100.00%)
  12. (0.00000) RY ( 5) O  1            s(  0.00%)p 1.00(100.00%)d 0.00(  0.00%)
  13. (0.00000) RY ( 6) O  1            s(  0.00%)p 1.00(100.00%)d 0.00(  0.00%)
                                                  f 0.00(  0.00%)
  14. (0.00000) RY ( 7) O  1            s(  0.00%)p 1.00(100.00%)d 0.00(  0.00%)
  15. (0.00000) RY ( 8) O  1            s(  0.00%)p 1.00(100.00%)d 0.00(  0.00%)
                                                  f 0.00(  0.00%)
  16. (0.00000) RY ( 9) O  1            s(  0.05%)p99.99( 99.95%)d 0.00(  0.00%)
  17. (0.00000) RY (10) O  1            s(  0.00%)p 0.00(  0.00%)d 1.00(100.00%)
  18. (0.00000) RY (11) O  1            s(  0.00%)p 0.00(  0.00%)d 1.00(100.00%)
  19. (0.00000) RY (12) O  1            s(  0.00%)p 1.00(  0.19%)d99.99( 99.81%)
  20. (0.00000) RY (13) O  1            s(  0.00%)p 0.00(  0.00%)d 1.00(100.00%)
                                                  f 0.00(  0.00%)
  21. (0.00000) RY (14) O  1            s(  0.00%)p 1.00(  0.43%)d99.99( 99.57%)
  22. (0.00000) RY (15) O  1            s(  0.00%)p 0.00(  0.00%)d 1.00(100.00%)
                                                  f 0.00(  0.00%)
  23. (0.00000) RY (16) O  1            s(  0.10%)p 0.30(  0.03%)d99.99( 99.87%)
                                                  f 0.00(  0.00%)
  24. (0.00000) RY (17) O  1            s(  0.00%)p 1.00( 15.72%)d 5.36( 84.28%)
  25. (0.00000) RY (18) O  1            s(  0.00%)p 1.00(  0.34%)d99.99( 99.66%)
  26. (0.00000) RY (19) O  1            s(  0.00%)p 1.00(  0.29%)d99.99( 99.71%)
                                                  f 0.00(  0.00%)
  27. (0.00000) RY (20) O  1            s(  0.00%)p 1.00(  0.30%)d 0.19(  0.06%)
                                                  f99.99( 99.64%)
  28. (0.00000) RY (21) O  1            s(  0.00%)p 0.00(  0.00%)d 0.00(  0.00%)
                                                  f 1.00(100.00%)
  29. (0.00000) RY (22) O  1            s(  0.00%)p 0.00(  0.00%)d 0.00(  0.00%)
                                                  f 1.00(100.00%)
  30. (0.00000) RY (23) O  1            s(  0.00%)p 1.00(  1.07%)d 0.19(  0.20%)
                                                  f92.57( 98.73%)
  31. (0.00000) RY (24) O  1            s(  0.00%)p 0.00(  0.00%)d 0.00(  0.00%)
                                                  f 1.00(100.00%)
  32. (0.00000) RY (25) O  1            s(  0.00%)p 0.00(  0.01%)d 0.00(  0.00%)
                                                  f 1.00( 99.99%)
  33. (0.00000) RY (26) O  1            s(  0.00%)p 0.00(  0.01%)d 0.00(  0.00%)
                                                  f 1.00( 99.99%)
  34. (0.00146) RY ( 1) H  2            s( 67.90%)p 0.45( 30.89%)d 0.02(  1.21%)
                                         0.0076  0.8225 -0.0484  0.0000  0.0000
                                         0.2041  0.0178  0.5103 -0.0808  0.0000
                                         0.0000  0.0650  0.0481 -0.0747
  35. (0.00126) RY ( 2) H  2            s(  0.00%)p 1.00( 99.71%)d 0.00(  0.29%)
                                         0.0000  0.0000  0.0000  0.9974  0.0478
                                         0.0000  0.0000  0.0000  0.0000  0.0464
                                        -0.0267  0.0000  0.0000  0.0000
  36. (0.00041) RY ( 3) H  2            s( 32.34%)p 2.03( 65.56%)d 0.06(  2.10%)
                                        -0.0012  0.4872  0.2934  0.0000  0.0000
                                        -0.0888 -0.0745 -0.7753 -0.2027  0.0000
                                         0.0000  0.1337  0.0542 -0.0115
  37. (0.00000) RY ( 4) H  2            s( 15.45%)p 1.24( 19.21%)d 4.23( 65.34%)
  38. (0.00000) RY ( 5) H  2            s(  0.00%)p 1.00(100.00%)
  39. (0.00000) RY ( 6) H  2            s(  7.74%)p11.92( 92.26%)d 0.00(  0.00%)
  40. (0.00000) RY ( 7) H  2            s( 21.16%)p 1.83( 38.75%)d 1.89( 40.09%)
  41. (0.00000) RY ( 8) H  2            s( 44.36%)p 1.25( 55.64%)d 0.00(  0.00%)
  42. (0.00000) RY ( 9) H  2            s(  7.57%)p12.21( 92.43%)d 0.00(  0.00%)
  43. (0.00000) RY (10) H  2            s(  0.00%)p 1.00(  0.22%)d99.99( 99.78%)
  44. (0.00000) RY (11) H  2            s(  0.00%)p 1.00(  0.07%)d99.99( 99.93%)
  45. (0.00000) RY (12) H  2            s(  3.14%)p 1.60(  5.03%)d29.21( 91.82%)
  46. (0.00000) RY (13) H  2            s(  0.46%)p 0.26(  0.12%)d99.99( 99.43%)
  47. (0.00146) RY ( 1) H  3            s( 67.90%)p 0.45( 30.89%)d 0.02(  1.21%)
                                         0.0076  0.8225 -0.0484  0.0000  0.0000
                                        -0.2041 -0.0178  0.5103 -0.0808  0.0000
                                         0.0000 -0.0650  0.0481 -0.0747
  48. (0.00126) RY ( 2) H  3            s(  0.00%)p 1.00( 99.71%)d 0.00(  0.29%)
                                         0.0000  0.0000  0.0000  0.9974  0.0478
                                         0.0000  0.0000  0.0000  0.0000 -0.0464
                                        -0.0267  0.0000  0.0000  0.0000
  49. (0.00041) RY ( 3) H  3            s( 32.34%)p 2.03( 65.56%)d 0.06(  2.10%)
                                        -0.0012  0.4872  0.2934  0.0000  0.0000
                                         0.0888  0.0745 -0.7753 -0.2027  0.0000
                                         0.0000 -0.1337  0.0542 -0.0115
  50. (0.00000) RY ( 4) H  3            s( 15.45%)p 1.24( 19.21%)d 4.23( 65.34%)
  51. (0.00000) RY ( 5) H  3            s(  0.00%)p 1.00(100.00%)
  52. (0.00000) RY ( 6) H  3            s(  7.74%)p11.92( 92.26%)d 0.00(  0.00%)
  53. (0.00000) RY ( 7) H  3            s( 21.16%)p 1.83( 38.75%)d 1.89( 40.09%)
  54. (0.00000) RY ( 8) H  3            s( 44.36%)p 1.25( 55.64%)d 0.00(  0.00%)
  55. (0.00000) RY ( 9) H  3            s(  7.57%)p12.21( 92.43%)d 0.00(  0.00%)
  56. (0.00000) RY (10) H  3            s(  0.00%)p 1.00(  0.22%)d99.99( 99.78%)
  57. (0.00000) RY (11) H  3            s(  0.00%)p 1.00(  0.07%)d99.99( 99.93%)
  58. (0.00000) RY (12) H  3            s(  3.14%)p 1.60(  5.03%)d29.21( 91.82%)
  59. (0.00000) RY (13) H  3            s(  0.46%)p 0.26(  0.12%)d99.99( 99.43%)


 NHO DIRECTIONALITY AND BOND BENDING (deviation from line of nuclear centers at
                                      the position of maximum hybrid amplitude)

         [Thresholds for printing:  angular deviation  >  1.0 degree]
                                    p- or d-character  > 25.0%
                                    orbital occupancy  >  0.10e

                        Line of Centers        Hybrid 1             Hybrid 2
                        ---------------  -------------------  ------------------
           NBO            Theta   Phi    Theta   Phi    Dev   Theta   Phi    Dev
 ===============================================================================
   2. LP ( 1) O  1          --     --     90.7  180.0   --      --     --    --
   3. LP ( 2) O  1          --     --      0.0    0.0   --      --     --    --


 SECOND ORDER PERTURBATION THEORY ANALYSIS OF FOCK MATRIX IN NBO BASIS

     Threshold for printing:   0.50 kcal/mol
                                                          E(2) E(NL)-E(L) F(L,NL)
      Donor (L) NBO              Acceptor (NL) NBO      kcal/mol   a.u.    a.u.
 ===============================================================================

 within unit  1
    2. LP ( 1) O  1            35. RY ( 2) H  2            1.39    1.73   0.044
    2. LP ( 1) O  1            48. RY ( 2) H  3            1.39    1.73   0.044
    3. LP ( 2) O  1            34. RY ( 1) H  2            1.30    1.34   0.037
    3. LP ( 2) O  1            47. RY ( 1) H  3            1.30    1.34   0.037
    4. BD ( 1) O  1- H  2      49. RY ( 3) H  3            0.73    2.83   0.040
    5. BD ( 1) O  1- H  3      36. RY ( 3) H  2            0.73    2.83   0.040


 NATURAL BOND ORBITALS (Summary):

                                                     Principal Delocalizations
           NBO                 Occupancy    Energy   (geminal,vicinal,remote)
 ===============================================================================
 Molecular unit  1  (H2O)
 ------ Lewis --------------------------------------
    1. CR ( 1) O  1             1.99999   -18.76840
    2. LP ( 1) O  1             1.99748    -0.26228  35(v),48(v)
    3. LP ( 2) O  1             1.99710    -0.49863  34(v),47(v)
    4. BD ( 1) O  1- H  2       1.99958    -0.62191  49(v)
    5. BD ( 1) O  1- H  3       1.99958    -0.62191  36(v)
 ------ non-Lewis ----------------------------------
    6. BD*( 1) O  1- H  2       0.00001     0.35253
    7. BD*( 1) O  1- H  3       0.00001     0.35253
    8. RY ( 1) O  1             0.00000     3.16390
    9. RY ( 2) O  1             0.00000     0.83073
   10. RY ( 3) O  1             0.00000     7.28555
   11. RY ( 4) O  1             0.00000    39.59187
   12. RY ( 5) O  1             0.00000     0.40453
   13. RY ( 6) O  1             0.00000     2.55324
   14. RY ( 7) O  1             0.00000     0.60935
   15. RY ( 8) O  1             0.00000     3.60518
   16. RY ( 9) O  1             0.00000     0.92997
   17. RY (10) O  1             0.00000     1.45023
   18. RY (11) O  1             0.00000     6.24480
   19. RY (12) O  1             0.00000     1.45757
   20. RY (13) O  1             0.00000     6.22722
   21. RY (14) O  1             0.00000     2.10805
   22. RY (15) O  1             0.00000     7.02253
   23. RY (16) O  1             0.00000     1.66665
   24. RY (17) O  1             0.00000     5.80084
   25. RY (18) O  1             0.00000     1.48493
   26. RY (19) O  1             0.00000     6.33358
   27. RY (20) O  1             0.00000     5.63891
   28. RY (21) O  1             0.00000     5.25406
   29. RY (22) O  1             0.00000     6.31306
   30. RY (23) O  1             0.00000     5.92695
   31. RY (24) O  1             0.00000     5.84597
   32. RY (25) O  1             0.00000     5.57984
   33. RY (26) O  1             0.00000     5.63808
   34. RY ( 1) H  2             0.00146     0.84093
   35. RY ( 2) H  2             0.00126     1.46434
   36. RY ( 3) H  2             0.00041     2.21132
   37. RY ( 4) H  2             0.00000     3.47545
   38. RY ( 5) H  2             0.00000     3.21464
   39. RY ( 6) H  2             0.00000     2.81922
   40. RY ( 7) H  2             0.00000     3.05303
   41. RY ( 8) H  2             0.00000     2.11756
   42. RY ( 9) H  2             0.00000     2.84615
   43. RY (10) H  2             0.00000     3.96565
   44. RY (11) H  2             0.00000     3.70946
   45. RY (12) H  2             0.00000     3.65807
   46. RY (13) H  2             0.00000     4.08781
   47. RY ( 1) H  3             0.00146     0.84093
   48. RY ( 2) H  3             0.00126     1.46434
   49. RY ( 3) H  3             0.00041     2.21132
   50. RY ( 4) H  3             0.00000     3.47545
   51. RY ( 5) H  3             0.00000     3.21464
   52. RY ( 6) H  3             0.00000     2.81922
   53. RY ( 7) H  3             0.00000     3.05303
   54. RY ( 8) H  3             0.00000     2.11756
   55. RY ( 9) H  3             0.00000     2.84615
   56. RY (10) H  3             0.00000     3.96565
   57. RY (11) H  3             0.00000     3.70946
   58. RY (12) H  3             0.00000     3.65807
   59. RY (13) H  3             0.00000     4.08781
          -------------------------------
                 Total Lewis    9.99373  ( 99.9373%)
           Valence non-Lewis    0.00002  (  0.0002%)
           Rydberg non-Lewis    0.00625  (  0.0625%)
          -------------------------------
               Total unit  1   10.00000  (100.0000%)
              Charge unit  1    0.00000

 $CHOOSE
   LONE 1 2 END
   BOND S 1 2 S 1 3 END
 $END

 NBO analysis completed in 0.11 CPU seconds (0 wall seconds)
 Maximum scratch memory used by NBO was 260942 words
 Maximum scratch memory used by G09NBO was 26010 words

 Read Unf file /scr/martin/g09job984/Gau-28661.EUF:
 Label Gaussian matrix elements                                         IVers= 1 NLab= 2 Version=ES64L-G09RevE.01
 Title Water DF-BP86-D3(PCM)/def2-TZVPP                                
 NAtoms=     3 NBasis=    59 NBsUse=    59 ICharg=     0 Multip=     1 NE=    10 Len12L=8 Len4L=8
 Label GAUSSIAN SCALARS                                                 NI= 1 NR= 1 NTot=       1 LenBuf=    2000 N=    1000       1       1       1       1
 Label NPA CHARGES                                                      NI= 0 NR= 1 NTot=       3 LenBuf=    4000 N=       3       0       0       0       0
 Recovered energy= -76.4698972995     dipole=      0.000000000000      0.000000000000      0.000000000000
 Leave Link  612 at Tue Jan  9 18:58:29 2018, MaxMem=  4194304000 cpu:         3.1
 (Enter /home/chemsoft/gaussian/g09e01/g09/l9999.exe)

 Test job not archived.
 1\1\GINC-LENOX07\FOpt\RBP86\def2TZVPP/W06\H2O1\MARTIN\09-Jan-2018\0\\#
 P BP86/def2TZVPP/W06 DenFit empiricaldispersion=GD3 opt(MaxCycle=100,V
 eryTight) scf(xqc,MaxConventionalCycle=500) int(ultrafinegrid) scrf(pc
 m,solvent=toluene) gfinput gfoldprint iop(6/7=3) symmetry(loose) pop=f
 ull pop=nbo6 pop(Allorbitals,ThreshOrbitals=5)\\Water DF-BP86-D3(PCM)/
 def2-TZVPP\\0,1\O,0.0532961168,0.,0.0380157507\H,0.0970662951,0.,1.007
 5509977\H,0.9842598788,0.,-0.2362485338\\Version=ES64L-G09RevE.01\Stat
 e=1-A1\HF=-76.4698973\RMSD=5.119e-10\RMSF=3.925e-08\Dipole=0.6541974,0
 .,0.4666345\Quadrupole=0.3231522,-1.1117984,0.7886463,0.,-0.6759465,0.
 \PG=C02V [C2(O1),SGV(H2)]\\@


 IF OTHER PEOPLE ARE GOING TO TALK, CONVERSATION IS SIMPLY IMPOSSIBLE.

                                               -- WHISTLER'S PRINCIPLE
 Job cpu time:       0 days  0 hours  8 minutes 36.1 seconds.
 File lengths (MBytes):  RWF=      9 Int=      0 D2E=      0 Chk=      2 Scr=      1
 Normal termination of Gaussian 09 at Tue Jan  9 18:58:29 2018.
