Water DF-BP86-D3(PCM)/def2-TZVPP                                        
FOpt      RBP86                                                       def2TZVPP/W06       
Number of atoms                            I                3
Info1-9                                    I   N=           9
          24          23           0           0           0         111
           2          18         402
Full Title                                 C   N=           3
Water DF-BP86-D3(PCM)/def2-TZVPP    
Route                                      C   N=          22
#P BP86/def2TZVPP/W06 DenFit empiricaldispersion=GD3 opt(Max
Cycle=100,VeryTight) scf(xqc,MaxConventionalCycle=500) int(u
ltrafinegrid) scrf(pcm,solvent=toluene) gfinput gfoldprint i
op(6/7=3) symmetry(loose) pop=full pop=nbo6 pop(Allorbitals,
ThreshOrbitals=5)       
Charge                                     I                0
Multiplicity                               I                1
Number of electrons                        I               10
Number of alpha electrons                  I                5
Number of beta electrons                   I                5
Number of basis functions                  I               59
Number of independent functions            I               59
Number of point charges in /Mol/           I                0
Number of translation vectors              I                0
Atomic numbers                             I   N=           3
           8           1           1
Nuclear charges                            R   N=           3
  8.00000000E+00  1.00000000E+00  1.00000000E+00
Current cartesian coordinates              R   N=           9
  3.45126646E-31  1.38777878E-17  2.26255385E-01 -3.54987407E-30  1.44355465E+00
 -9.05021540E-01 -1.76784458E-16 -1.44355465E+00 -9.05021540E-01
Number of symbols in /Mol/                 I                0
Redundant internal dimensions              I   N=           4
           3           2           1           0
Redundant internal coordinate indices      I   N=          12
           1           2           0           0           1           3
           0           0           2           1           3           0
Redundant internal coordinates             R   N=           3
  1.83402222E+00  1.83402222E+00  1.81217910E+00
ZRed-IntVec                                I   N=           3
           0           0           0
ZRed-FPVec                                 R   N=           3
  0.00000000E+00  0.00000000E+00  0.00000000E+00
ZRed-Constraint1                           R   N=           3
  2.26767136E+00  2.26767136E+00  1.90240888E+00
ZRed-Constraint2                           R   N=           3
  0.00000000E+00  0.00000000E+00  0.00000000E+00
Force Field                                I                0
Atom Types                                 C   N=           3
                                    
Int Atom Types                             I   N=           3
           0           0           0
MM charges                                 R   N=           3
  0.00000000E+00  0.00000000E+00  0.00000000E+00
Integer atomic weights                     I   N=           3
          16           1           1
Real atomic weights                        R   N=           3
  1.59949146E+01  1.00782504E+00  1.00782504E+00
Atom fragment info                         I   N=           3
           0           0           0
Atom residue num                           I   N=           3
           0           0           0
Nuclear spins                              I   N=           3
           0           1           1
Nuclear ZEff                               R   N=           3
 -5.60000000E+00 -1.00000000E+00 -1.00000000E+00
Nuclear ZNuc                               R   N=           3
  8.00000000E+00  1.00000000E+00  1.00000000E+00
Nuclear QMom                               R   N=           3
  0.00000000E+00  0.00000000E+00  0.00000000E+00
Nuclear GFac                               R   N=           3
  0.00000000E+00  2.79284600E+00  2.79284600E+00
MicOpt                                     I   N=           3
          -1          -1          -1
Number of residues                         I                0
Number of secondary structures             I                0
SymInf integers                            I   N=          26
           2           4           1           1           1          -1
          -1           1          -1           1           1           1
          -1           1           0           0           0           0
           0           0           0           0           0           0
           0           0
RotTr to input orientation                 R   N=          12
  2.83611279E-15 -1.00000000E+00 -1.64796929E-15 -5.80702956E-01 -2.98857645E-15
  8.14115518E-01 -8.14115518E-01 -1.35194280E-15 -5.80702956E-01  2.84913085E-01
  1.37920862E-16  2.03226528E-01
Number of contracted shells                I               23
Number of primitive shells                 I               36
Pure/Cartesian d shells                    I                0
Pure/Cartesian f shells                    I                0
Highest angular momentum                   I                3
Largest degree of contraction              I                6
Shell types                                I   N=          23
           0           0           0           0           0           1
           1           1          -2          -2          -3           0
           0           0           1           1          -2           0
           0           0           1           1          -2
Number of primitives per shell             I   N=          23
           6           2           1           1           1           4
           1           1           1           1           1           3
           1           1           1           1           1           3
           1           1           1           1           1
Shell to atom map                          I   N=          23
           1           1           1           1           1           1
           1           1           1           1           1           2
           2           2           2           2           2           3
           3           3           3           3           3
Primitive exponents                        R   N=          36
  2.70323826E+04  4.05238714E+03  9.22327227E+02  2.61240710E+02  8.53546414E+01
  3.10350352E+01  1.22608607E+01  4.99870760E+00  1.17031082E+00  4.64747410E-01
  1.85045364E-01  6.32749548E+01  1.46270494E+01  4.45012235E+00  1.52757996E+00
  5.29351179E-01  1.74784213E-01  2.31400000E+00  6.45000000E-01  1.42800000E+00
  3.40613410E+01  5.12357460E+00  1.16466260E+00  3.27230410E-01  1.03072410E-01
  1.40700000E+00  3.88000000E-01  1.05700000E+00  3.40613410E+01  5.12357460E+00
  1.16466260E+00  3.27230410E-01  1.03072410E-01  1.40700000E+00  3.88000000E-01
  1.05700000E+00
Contraction coefficients                   R   N=          36
  5.72273352E-04  4.43532335E-03  2.30201077E-02  9.28224907E-02  2.93785000E-01
  6.74016045E-01  6.38399370E-01  3.95345871E-01  1.00000000E+00  1.00000000E+00
  1.00000000E+00  1.20183322E-02  8.30054218E-02  3.19917439E-01  7.07155429E-01
  1.00000000E+00  1.00000000E+00  1.00000000E+00  1.00000000E+00  1.00000000E+00
  2.54393072E-02  1.90085949E-01  8.52441130E-01  1.00000000E+00  1.00000000E+00
  1.00000000E+00  1.00000000E+00  1.00000000E+00  2.54393072E-02  1.90085949E-01
  8.52441130E-01  1.00000000E+00  1.00000000E+00  1.00000000E+00  1.00000000E+00
  1.00000000E+00
Coordinates of each shell                  R   N=          69
 -1.47911420E-31  1.38777878E-17  2.26255385E-01 -1.47911420E-31  1.38777878E-17
  2.26255385E-01 -1.47911420E-31  1.38777878E-17  2.26255385E-01 -1.47911420E-31
  1.38777878E-17  2.26255385E-01 -1.47911420E-31  1.38777878E-17  2.26255385E-01
 -1.47911420E-31  1.38777878E-17  2.26255385E-01 -1.47911420E-31  1.38777878E-17
  2.26255385E-01 -1.47911420E-31  1.38777878E-17  2.26255385E-01 -1.47911420E-31
  1.38777878E-17  2.26255385E-01 -1.47911420E-31  1.38777878E-17  2.26255385E-01
 -1.47911420E-31  1.38777878E-17  2.26255385E-01 -1.57772181E-30  1.44355465E+00
 -9.05021540E-01 -1.57772181E-30  1.44355465E+00 -9.05021540E-01 -1.57772181E-30
  1.44355465E+00 -9.05021540E-01 -1.57772181E-30  1.44355465E+00 -9.05021540E-01
 -1.57772181E-30  1.44355465E+00 -9.05021540E-01 -1.57772181E-30  1.44355465E+00
 -9.05021540E-01 -1.76784458E-16 -1.44355465E+00 -9.05021540E-01 -1.76784458E-16
 -1.44355465E+00 -9.05021540E-01 -1.76784458E-16 -1.44355465E+00 -9.05021540E-01
 -1.76784458E-16 -1.44355465E+00 -9.05021540E-01 -1.76784458E-16 -1.44355465E+00
 -9.05021540E-01 -1.76784458E-16 -1.44355465E+00 -9.05021540E-01
Density Number of contracted shells        I               25
Density Number of primitive shells         I               40
Density Pure/Cartesian d shells            I                0
Density Pure/Cartesian f shells            I                0
Density Highest angular momentum           I                4
Density Largest degree of contraction      I                7
Density Shell types                        I   N=          25
           0           0           0           0           0           0
           1           1           1           1          -2          -2
          -2          -3          -4           0           0           0
           1          -2           0           0           0           1
          -2
Density Number of primitives per shell     I   N=          25
           7           1           1           1           1           1
           2           1           1           1           2           1
           1           2           1           3           1           1
           2           1           3           1           1           2
           1
Density Shell to atom map                  I   N=          25
           1           1           1           1           1           1
           1           1           1           1           1           1
           1           1           1           2           2           2
           2           2           3           3           3           3
           3
Density Primitive exponents                R   N=          40
  2.87682166E+03  1.00474430E+03  3.69757995E+02  1.42944240E+02  5.78366425E+01
  2.43864983E+01  1.06622662E+01  4.80704370E+00  2.22107700E+00  1.04477950E+00
  4.96842500E-01  2.37138400E-01  6.42613382E+01  1.63006076E+01  4.35505420E+00
  1.20195540E+00  3.35419600E-01  9.21466110E+00  2.84352510E+00  9.95575900E-01
  3.64944100E-01  2.64201150E+00  7.34561300E-01  1.39310000E+00  1.56752927E+01
  3.60635780E+00  1.20800160E+00  4.72679400E-01  2.01810000E-01  2.02813650E+00
  5.35873000E-01  2.21651240E+00  1.56752927E+01  3.60635780E+00  1.20800160E+00
  4.72679400E-01  2.01810000E-01  2.02813650E+00  5.35873000E-01  2.21651240E+00
Density Contraction coefficients           R   N=          40
  2.27059374E-03  7.77182193E-03  4.50077667E-02  1.61416987E-01  4.00248316E-01
  4.05535243E-01  1.26448388E-02 -1.00000000E+00  1.00000000E+00  1.00000000E+00
  1.00000000E+00  1.00000000E+00 -1.49399058E-01 -8.87014155E-01  1.00000000E+00
  1.00000000E+00  1.00000000E+00 -2.89209135E-01 -7.37269563E-01 -1.00000000E+00
 -1.00000000E+00  3.73723879E-01  7.08768125E-01 -1.00000000E+00  3.26115897E-02
  2.29804684E-01  7.57208324E-01  1.00000000E+00  1.00000000E+00  3.61836199E-01
  7.03930309E-01  1.00000000E+00  3.26115897E-02  2.29804684E-01  7.57208324E-01
  1.00000000E+00  1.00000000E+00  3.61836199E-01  7.03930309E-01  1.00000000E+00
Density Coordinates of each shell          R   N=          75
 -1.47911420E-31  1.38777878E-17  2.26255385E-01 -1.47911420E-31  1.38777878E-17
  2.26255385E-01 -1.47911420E-31  1.38777878E-17  2.26255385E-01 -1.47911420E-31
  1.38777878E-17  2.26255385E-01 -1.47911420E-31  1.38777878E-17  2.26255385E-01
 -1.47911420E-31  1.38777878E-17  2.26255385E-01 -1.47911420E-31  1.38777878E-17
  2.26255385E-01 -1.47911420E-31  1.38777878E-17  2.26255385E-01 -1.47911420E-31
  1.38777878E-17  2.26255385E-01 -1.47911420E-31  1.38777878E-17  2.26255385E-01
 -1.47911420E-31  1.38777878E-17  2.26255385E-01 -1.47911420E-31  1.38777878E-17
  2.26255385E-01 -1.47911420E-31  1.38777878E-17  2.26255385E-01 -1.47911420E-31
  1.38777878E-17  2.26255385E-01 -1.47911420E-31  1.38777878E-17  2.26255385E-01
 -1.57772181E-30  1.44355465E+00 -9.05021540E-01 -1.57772181E-30  1.44355465E+00
 -9.05021540E-01 -1.57772181E-30  1.44355465E+00 -9.05021540E-01 -1.57772181E-30
  1.44355465E+00 -9.05021540E-01 -1.57772181E-30  1.44355465E+00 -9.05021540E-01
 -1.76784458E-16 -1.44355465E+00 -9.05021540E-01 -1.76784458E-16 -1.44355465E+00
 -9.05021540E-01 -1.76784458E-16 -1.44355465E+00 -9.05021540E-01 -1.76784458E-16
 -1.44355465E+00 -9.05021540E-01 -1.76784458E-16 -1.44355465E+00 -9.05021540E-01
Constraint Structure                       R   N=           9
  1.23259516E-32 -1.38777878E-17  2.63368692E-01 -1.97215226E-31  1.84614644E+00
 -1.05347477E+00 -2.26087733E-16 -1.84614644E+00 -1.05347477E+00
Num ILSW                                   I              100
ILSW                                       I   N=         100
           0           0           0           0           2           0
           0           0           0           0         404          -1
           5           0           0           0           2           0
           0           0           0           0           1           0
           1           0           0           0           0           0
           0           0      100000           0          -1           0
           0           0           0           0           0           0
           0           0           0           1           0           0
           0           0           1           0           0           0
           0           0         131          41           0           0
           0           0           0           0           0           0
           0           0           0           3           0           0
           0           0           0           0           0           0
           0           0           0           0           0           0
           0           0           0           0           0           0
           0           0           0           0           0           0
           0           0           0           0
Num RLSW                                   I               41
RLSW                                       R   N=          41
  1.00000000E+00  1.00000000E+00  1.00000000E+00  1.00000000E+00  0.00000000E+00
  0.00000000E+00  0.00000000E+00  1.00000000E+00  0.00000000E+00  0.00000000E+00
  0.00000000E+00  0.00000000E+00  1.00000000E+00  0.00000000E+00  0.00000000E+00
  0.00000000E+00  0.00000000E+00  1.00000000E+00  0.00000000E+00  0.00000000E+00
  0.00000000E+00  0.00000000E+00  1.00000000E+00  0.00000000E+00  0.00000000E+00
  0.00000000E+00  0.00000000E+00  1.00000000E+00  0.00000000E+00  0.00000000E+00
  0.00000000E+00  0.00000000E+00  1.00000000E+00  0.00000000E+00  0.00000000E+00
  0.00000000E+00  0.00000000E+00  0.00000000E+00  1.00000000E+00  1.00000000E+00
  0.00000000E+00
ECP-MxAtEC                                 I           250000
ECP-MaxLECP                                I               10
ECP-MaxAtL                                 I          2250000
ECP-MxTECP                                 I         11250000
ECP-LenNCZ                                 I                0
ECP-KFirst                                 I   N=          30
           0           0           0           0           0           0
           0           0           0           0           0           0
           0           0           0           0           0           0
           0           0           0           0           0           0
           0           0           0           0           0           0
ECP-KLast                                  I   N=          30
           0           0           0           0           0           0
           0           0           0           0           0           0
           0           0           0           0           0           0
           0           0           0           0           0           0
           0           0           0           0           0           0
ECP-LMax                                   I   N=           3
           0           0           0
ECP-LPSkip                                 I   N=           3
           1           1           1
ECP-RNFroz                                 R   N=           3
  0.00000000E+00  0.00000000E+00  0.00000000E+00
ECP-NLP                                    I                0
ECP-CLP1                                   R      0.000000000000000E+00
ECP-CLP2                                   R      0.000000000000000E+00
ECP-ZLP                                    R      0.000000000000000E+00
MxBond                                     I                2
NBond                                      I   N=           3
           2           1           1
IBond                                      I   N=           6
           2           3           1           0           1           0
RBond                                      R   N=           6
  1.00000000E-01  1.00000000E-01  1.00000000E-01  0.00000000E+00  1.00000000E-01
  0.00000000E+00
Virial Ratio                               R      2.003725704425250E+00
SCF Energy                                 R     -7.646989729950052E+01
Total Energy                               R     -7.646989729950052E+01
RMS Force                                  R      3.924545963713453E-08
RMS Density                                R      5.119138476726339E-10
Job Status                                 I                1
Nuclear derivative order                   I                1
External E-field                           R   N=          35
  0.00000000E+00  0.00000000E+00  0.00000000E+00  0.00000000E+00  0.00000000E+00
  0.00000000E+00  0.00000000E+00  0.00000000E+00  0.00000000E+00  0.00000000E+00
  0.00000000E+00  0.00000000E+00  0.00000000E+00  0.00000000E+00  0.00000000E+00
  0.00000000E+00  0.00000000E+00  0.00000000E+00  0.00000000E+00  0.00000000E+00
  0.00000000E+00  0.00000000E+00  0.00000000E+00  0.00000000E+00  0.00000000E+00
  0.00000000E+00  0.00000000E+00  0.00000000E+00  0.00000000E+00  0.00000000E+00
  0.00000000E+00  0.00000000E+00  0.00000000E+00  0.00000000E+00  0.00000000E+00
IOpCl                                      I                0
IROHF                                      I                0
Alpha Orbital Energies                     R   N=          59
 -1.87684881E+01 -9.25196273E-01 -4.77857011E-01 -3.42603546E-01 -2.64476440E-01
  4.99494044E-03  8.25410477E-02  3.23243534E-01  3.64548445E-01  3.76099819E-01
  3.89206499E-01  5.00910712E-01  5.24050484E-01  6.01613079E-01  6.36186091E-01
  7.22634601E-01  9.61831139E-01  1.11836510E+00  1.17422532E+00  1.66709934E+00
  1.68068773E+00  1.70906100E+00  1.76375529E+00  1.80220736E+00  2.00636180E+00
  2.28496849E+00  2.43878931E+00  2.60714403E+00  2.97719649E+00  3.07444171E+00
  3.17243816E+00  3.18569619E+00  3.18648927E+00  3.27311093E+00  3.43380798E+00
  3.50474341E+00  3.55751266E+00  3.55766811E+00  3.89839230E+00  3.98160935E+00
  3.98871183E+00  4.06288032E+00  4.48784024E+00  4.50980569E+00  4.66007269E+00
  4.84397730E+00  5.46326293E+00  5.99190514E+00  6.23520220E+00  6.26022713E+00
  6.38178485E+00  6.39382958E+00  6.45807688E+00  6.63277238E+00  6.70273387E+00
  7.21996722E+00  7.22737963E+00  7.45826081E+00  4.30830414E+01
Alpha MO coefficients                      R   N=        3481
  4.35768790E-01  6.38423655E-01  3.62326626E-02 -2.14978143E-02  7.09198101E-03
  0.00000000E+00  0.00000000E+00 -2.04145904E-03  0.00000000E+00  0.00000000E+00
  2.11640868E-03  0.00000000E+00  0.00000000E+00 -4.50616024E-04  8.00815993E-05
  0.00000000E+00  0.00000000E+00 -4.71360098E-04  0.00000000E+00 -2.41103528E-04
  0.00000000E+00  0.00000000E+00  5.47333802E-04  0.00000000E+00  6.41885104E-05
  0.00000000E+00  0.00000000E+00  1.92408747E-05  0.00000000E+00  0.00000000E+00
  0.00000000E+00  5.21756298E-04  1.22220137E-03 -1.16078340E-03  0.00000000E+00
  1.52753724E-04 -2.29655866E-04  0.00000000E+00 -6.60655821E-04  4.87413353E-04
 -1.23203826E-04  0.00000000E+00  7.76340277E-04  3.89765458E-04  0.00000000E+00
  5.21756298E-04  1.22220137E-03 -1.16078340E-03  0.00000000E+00 -1.52753724E-04
 -2.29655866E-04  0.00000000E+00  6.60655821E-04  4.87413353E-04 -1.23203826E-04
  0.00000000E+00 -7.76340277E-04  3.89765458E-04  0.00000000E+00 -9.80307748E-02
 -2.28912392E-01  3.41703534E-01  4.08429450E-01  1.51624429E-01  0.00000000E+00
  0.00000000E+00 -9.11313676E-02  0.00000000E+00  0.00000000E+00 -6.27629718E-02
  0.00000000E+00  0.00000000E+00 -8.52567482E-03  1.46967895E-03  0.00000000E+00
  0.00000000E+00 -3.94580535E-03  0.00000000E+00  3.56731390E-03  0.00000000E+00
  0.00000000E+00 -6.16134070E-03  0.00000000E+00 -2.47370115E-04  0.00000000E+00
  0.00000000E+00  6.80274030E-04  0.00000000E+00  0.00000000E+00  0.00000000E+00
  9.48499742E-02  8.45267351E-02  6.49818082E-03  0.00000000E+00 -1.24578040E-02
  8.65758899E-03  0.00000000E+00 -1.26778858E-02  6.55620010E-03  2.90272148E-06
  0.00000000E+00 -3.87021388E-03 -3.02908837E-03  0.00000000E+00  9.48499742E-02
  8.45267351E-02  6.49818082E-03  0.00000000E+00  1.24578040E-02  8.65758899E-03
  0.00000000E+00  1.26778858E-02  6.55620010E-03  2.90272148E-06  0.00000000E+00
  3.87021388E-03 -3.02908837E-03  0.00000000E+00  0.00000000E+00  0.00000000E+00
  0.00000000E+00  0.00000000E+00  0.00000000E+00  0.00000000E+00  3.89090525E-01
  0.00000000E+00  0.00000000E+00  2.68626174E-01  0.00000000E+00  0.00000000E+00
  1.16372899E-01  0.00000000E+00  0.00000000E+00  0.00000000E+00 -1.10230207E-02
  0.00000000E+00  0.00000000E+00  0.00000000E+00  0.00000000E+00 -1.03831596E-02
  0.00000000E+00  0.00000000E+00  0.00000000E+00  0.00000000E+00 -9.48557595E-04
  0.00000000E+00  0.00000000E+00  0.00000000E+00 -1.91960705E-03  1.49438318E-01
  2.13563444E-01  6.45801924E-02  0.00000000E+00 -1.00701664E-02  1.39650207E-02
  0.00000000E+00 -1.26969744E-02  2.03237687E-02  2.36074232E-03  0.00000000E+00
 -5.96172207E-03 -2.60644816E-03  0.00000000E+00 -1.49438318E-01 -2.13563444E-01
 -6.45801924E-02  0.00000000E+00 -1.00701664E-02 -1.39650207E-02  0.00000000E+00
 -1.26969744E-02 -2.03237687E-02 -2.36074232E-03  0.00000000E+00 -5.96172207E-03
  2.60644816E-03  0.00000000E+00 -3.75722257E-02 -8.91412307E-02  1.35351168E-01
  2.07197482E-01  2.55213710E-01  0.00000000E+00  0.00000000E+00  4.15533424E-01
  0.00000000E+00  0.00000000E+00  3.03601940E-01  0.00000000E+00  0.00000000E+00
  2.17256311E-01 -5.70046506E-03  0.00000000E+00  0.00000000E+00  1.76387997E-03
  0.00000000E+00 -1.48748944E-02  0.00000000E+00  0.00000000E+00 -1.44019467E-03
  0.00000000E+00  8.99223441E-04  0.00000000E+00  0.00000000E+00 -1.54061067E-03
  0.00000000E+00  0.00000000E+00  0.00000000E+00 -8.75562596E-02 -1.44850277E-01
 -4.30733479E-02  0.00000000E+00  9.96809751E-03  1.29060939E-03  0.00000000E+00
  2.20360489E-02  1.59218617E-02  3.11750995E-03  0.00000000E+00  6.90544682E-04
  3.95220928E-03  0.00000000E+00 -8.75562596E-02 -1.44850277E-01 -4.30733479E-02
  0.00000000E+00 -9.96809751E-03  1.29060939E-03  0.00000000E+00 -2.20360489E-02
  1.59218617E-02  3.11750995E-03  0.00000000E+00 -6.90544682E-04  3.95220928E-03
  0.00000000E+00  0.00000000E+00  0.00000000E+00  0.00000000E+00  0.00000000E+00
  0.00000000E+00  4.75448520E-01  0.00000000E+00  0.00000000E+00  3.70428681E-01
  0.00000000E+00  0.00000000E+00  3.26148033E-01  0.00000000E+00  0.00000000E+00
  0.00000000E+00 -5.18986440E-03  0.00000000E+00  0.00000000E+00  0.00000000E+00
  0.00000000E+00 -1.70038255E-02  0.00000000E+00  0.00000000E+00  0.00000000E+00
  0.00000000E+00  1.30677560E-03  0.00000000E+00  0.00000000E+00  0.00000000E+00
 -3.13403378E-03  0.00000000E+00  0.00000000E+00  0.00000000E+00  0.00000000E+00
  1.11394546E-02  0.00000000E+00  0.00000000E+00  3.31210963E-02  0.00000000E+00
  0.00000000E+00  0.00000000E+00  3.31889429E-03  0.00000000E+00  0.00000000E+00
 -5.03110767E-03  0.00000000E+00  0.00000000E+00  0.00000000E+00  1.11394546E-02
  0.00000000E+00  0.00000000E+00  3.31210963E-02  0.00000000E+00  0.00000000E+00
  0.00000000E+00  3.31889429E-03  0.00000000E+00  0.00000000E+00  5.03110767E-03
 -3.68410497E-02 -9.02586021E-02  1.68817176E-01  1.69105222E-01  1.22714900E+00
  0.00000000E+00  0.00000000E+00 -1.70780931E-01  0.00000000E+00  0.00000000E+00
 -1.98036368E-01  0.00000000E+00  0.00000000E+00 -4.09517493E-01  6.42009523E-04
  0.00000000E+00  0.00000000E+00  3.44100357E-03  0.00000000E+00  1.64056546E-02
  0.00000000E+00  0.00000000E+00 -1.47386033E-02  0.00000000E+00 -3.10855814E-04
  0.00000000E+00  0.00000000E+00  1.53941521E-03  0.00000000E+00  0.00000000E+00
  0.00000000E+00 -4.43369941E-02 -2.76351786E-01 -8.95492876E-01  0.00000000E+00
 -1.56014460E-02  8.21322790E-03  0.00000000E+00  5.08323855E-02 -2.53619872E-02
 -5.62860233E-04  0.00000000E+00  2.25346767E-03  1.63028752E-03  0.00000000E+00
 -4.43369941E-02 -2.76351786E-01 -8.95492876E-01  0.00000000E+00  1.56014460E-02
  8.21322790E-03  0.00000000E+00 -5.08323855E-02 -2.53619872E-02 -5.62860233E-04
  0.00000000E+00 -2.25346767E-03  1.63028752E-03  0.00000000E+00  0.00000000E+00
  0.00000000E+00  0.00000000E+00  0.00000000E+00  0.00000000E+00  0.00000000E+00
 -2.79137739E-01  0.00000000E+00  0.00000000E+00 -2.43675338E-01  0.00000000E+00
  0.00000000E+00 -7.04618130E-01  0.00000000E+00  0.00000000E+00  0.00000000E+00
 -3.93656575E-03  0.00000000E+00  0.00000000E+00  0.00000000E+00  0.00000000E+00
  1.23080295E-02  0.00000000E+00  0.00000000E+00  0.00000000E+00  0.00000000E+00
  1.08970120E-03  0.00000000E+00  0.00000000E+00  0.00000000E+00  1.32439552E-03
  4.93643696E-02  2.09364097E-01  1.51766574E+00  0.00000000E+00  1.30605509E-02
 -1.47369059E-02  0.00000000E+00 -2.51910989E-02  1.92013741E-02 -2.38649103E-03
  0.00000000E+00 -2.52100712E-03 -3.09741182E-03  0.00000000E+00 -4.93643696E-02
 -2.09364097E-01 -1.51766574E+00  0.00000000E+00  1.30605509E-02  1.47369059E-02
  0.00000000E+00 -2.51910989E-02 -1.92013741E-02  2.38649103E-03  0.00000000E+00
 -2.52100712E-03  3.09741182E-03  0.00000000E+00  0.00000000E+00  0.00000000E+00
  0.00000000E+00  0.00000000E+00  0.00000000E+00  0.00000000E+00 -1.15384908E-01
  0.00000000E+00  0.00000000E+00 -2.70667796E-01  0.00000000E+00  0.00000000E+00
 -9.57432558E-01  0.00000000E+00  0.00000000E+00  0.00000000E+00 -2.47324406E-02
  0.00000000E+00  0.00000000E+00  0.00000000E+00  0.00000000E+00  7.15436146E-02
  0.00000000E+00  0.00000000E+00  0.00000000E+00  0.00000000E+00 -9.12607304E-03
  0.00000000E+00  0.00000000E+00  0.00000000E+00  1.02677007E-02  1.29107559E-01
  1.31062468E+00 -7.45135645E-01  0.00000000E+00 -3.65887592E-02  1.91076672E-02
  0.00000000E+00 -2.79207641E-02 -3.19102317E-02 -3.02993781E-03  0.00000000E+00
 -2.11255975E-02 -8.99858587E-03  0.00000000E+00 -1.29107559E-01 -1.31062468E+00
  7.45135645E-01  0.00000000E+00 -3.65887592E-02 -1.91076672E-02  0.00000000E+00
 -2.79207641E-02  3.19102317E-02  3.02993781E-03  0.00000000E+00 -2.11255975E-02
  8.99858587E-03  0.00000000E+00 -4.69827629E-03 -5.02302844E-03 -1.41074571E-01
  7.58417420E-01  1.78657792E+00  0.00000000E+00  0.00000000E+00  3.50296454E-01
  0.00000000E+00  0.00000000E+00  2.02460633E-01  0.00000000E+00  0.00000000E+00
 -1.73869704E+00 -1.27122320E-02  0.00000000E+00  0.00000000E+00  5.79466221E-03
  0.00000000E+00  5.27448199E-02  0.00000000E+00  0.00000000E+00 -1.44774438E-01
  0.00000000E+00  6.16865432E-03  0.00000000E+00  0.00000000E+00  1.69825970E-02
  0.00000000E+00  0.00000000E+00  0.00000000E+00  6.64414477E-02 -7.78172301E-01
 -6.71309100E-01  0.00000000E+00  1.45424137E-02 -1.46645604E-02  0.00000000E+00
  4.98021204E-01 -2.67783741E-01  4.50688024E-03  0.00000000E+00  3.52968376E-02
  2.78050891E-02  0.00000000E+00  6.64414477E-02 -7.78172301E-01 -6.71309100E-01
  0.00000000E+00 -1.45424137E-02 -1.46645604E-02  0.00000000E+00 -4.98021204E-01
 -2.67783741E-01  4.50688024E-03  0.00000000E+00 -3.52968376E-02  2.78050891E-02
  0.00000000E+00  3.48283664E-02  7.85057691E-02 -8.06025763E-03 -8.08903598E-01
 -1.38729028E-01  0.00000000E+00  0.00000000E+00  5.00090275E-02  0.00000000E+00
  0.00000000E+00  1.09254753E-01  0.00000000E+00  0.00000000E+00  8.13740467E-01
 -3.68335550E-03  0.00000000E+00  0.00000000E+00 -1.69259969E-02  0.00000000E+00
  3.69137939E-04  0.00000000E+00  0.00000000E+00  2.99526856E-02  0.00000000E+00
 -8.82578988E-03  0.00000000E+00  0.00000000E+00 -1.57827750E-02  0.00000000E+00
  0.00000000E+00  0.00000000E+00  1.18813219E-01  1.37331763E+00 -6.32572699E-01
  0.00000000E+00 -2.57202970E-02  1.99878126E-02  0.00000000E+00  9.16189830E-02
  1.17162556E-01  1.06878912E-02  0.00000000E+00 -1.90656723E-02 -1.40431477E-02
  0.00000000E+00  1.18813219E-01  1.37331763E+00 -6.32572699E-01  0.00000000E+00
  2.57202970E-02  1.99878126E-02  0.00000000E+00 -9.16189830E-02  1.17162556E-01
  1.06878912E-02  0.00000000E+00  1.90656723E-02 -1.40431477E-02  0.00000000E+00
  0.00000000E+00  0.00000000E+00  0.00000000E+00  0.00000000E+00  0.00000000E+00
 -3.30477933E-01  0.00000000E+00  0.00000000E+00 -6.82002645E-01  0.00000000E+00
  0.00000000E+00  1.24932271E+00  0.00000000E+00  0.00000000E+00  0.00000000E+00
  7.04070617E-03  0.00000000E+00  0.00000000E+00  0.00000000E+00  0.00000000E+00
 -1.14870119E-02  0.00000000E+00  0.00000000E+00  0.00000000E+00  0.00000000E+00
 -3.99191579E-04  0.00000000E+00  0.00000000E+00  0.00000000E+00  1.28313564E-03
  0.00000000E+00  0.00000000E+00  0.00000000E+00  0.00000000E+00  6.04967563E-03