 Entering Gaussian System, Link 0=g09
 Input=h2o.b2plyp.def2svp.nbo6.freq.gjf
 Output=h2o.b2plyp.def2svp.nbo6.freq.log
 Initial command:
 /home/chemsoft/gaussian/g09e01/g09/l1.exe "/scr/martin/g09job988/Gau-2490.inp" -scrdir="/scr/martin/g09job988/"
 Entering Link 1 = /home/chemsoft/gaussian/g09e01/g09/l1.exe PID=      2491.
  
 Copyright (c) 1988,1990,1992,1993,1995,1998,2003,2009,2015,
            Gaussian, Inc.  All Rights Reserved.
  
 This is part of the Gaussian(R) 09 program.  It is based on
 the Gaussian(R) 03 system (copyright 2003, Gaussian, Inc.),
 the Gaussian(R) 98 system (copyright 1998, Gaussian, Inc.),
 the Gaussian(R) 94 system (copyright 1995, Gaussian, Inc.),
 the Gaussian 92(TM) system (copyright 1992, Gaussian, Inc.),
 the Gaussian 90(TM) system (copyright 1990, Gaussian, Inc.),
 the Gaussian 88(TM) system (copyright 1988, Gaussian, Inc.),
 the Gaussian 86(TM) system (copyright 1986, Carnegie Mellon
 University), and the Gaussian 82(TM) system (copyright 1983,
 Carnegie Mellon University). Gaussian is a federally registered
 trademark of Gaussian, Inc.
  
 This software contains proprietary and confidential information,
 including trade secrets, belonging to Gaussian, Inc.
  
 This software is provided under written license and may be
 used, copied, transmitted, or stored only in accord with that
 written license.
  
 The following legend is applicable only to US Government
 contracts under FAR:
  
                    RESTRICTED RIGHTS LEGEND
  
 Use, reproduction and disclosure by the US Government is
 subject to restrictions as set forth in subparagraphs (a)
 and (c) of the Commercial Computer Software - Restricted
 Rights clause in FAR 52.227-19.
  
 Gaussian, Inc.
 340 Quinnipiac St., Bldg. 40, Wallingford CT 06492
  
  
 ---------------------------------------------------------------
 Warning -- This program may not be used in any manner that
 competes with the business of Gaussian, Inc. or will provide
 assistance to any competitor of Gaussian, Inc.  The licensee
 of this program is prohibited from giving any competitor of
 Gaussian, Inc. access to this program.  By using this program,
 the user acknowledges that Gaussian, Inc. is engaged in the
 business of creating and licensing software in the field of
 computational chemistry and represents and warrants to the
 licensee that it is not a competitor of Gaussian, Inc. and that
 it will not use this program in any manner prohibited above.
 ---------------------------------------------------------------
  

 Cite this work as:
 Gaussian 09, Revision E.01,
 M. J. Frisch, G. W. Trucks, H. B. Schlegel, G. E. Scuseria, 
 M. A. Robb, J. R. Cheeseman, G. Scalmani, V. Barone, B. Mennucci, 
 G. A. Petersson, H. Nakatsuji, M. Caricato, X. Li, H. P. Hratchian, 
 A. F. Izmaylov, J. Bloino, G. Zheng, J. L. Sonnenberg, M. Hada, 
 M. Ehara, K. Toyota, R. Fukuda, J. Hasegawa, M. Ishida, T. Nakajima, 
 Y. Honda, O. Kitao, H. Nakai, T. Vreven, J. A. Montgomery, Jr., 
 J. E. Peralta, F. Ogliaro, M. Bearpark, J. J. Heyd, E. Brothers, 
 K. N. Kudin, V. N. Staroverov, T. Keith, R. Kobayashi, J. Normand, 
 K. Raghavachari, A. Rendell, J. C. Burant, S. S. Iyengar, J. Tomasi, 
 M. Cossi, N. Rega, J. M. Millam, M. Klene, J. E. Knox, J. B. Cross, 
 V. Bakken, C. Adamo, J. Jaramillo, R. Gomperts, R. E. Stratmann, 
 O. Yazyev, A. J. Austin, R. Cammi, C. Pomelli, J. W. Ochterski, 
 R. L. Martin, K. Morokuma, V. G. Zakrzewski, G. A. Voth, 
 P. Salvador, J. J. Dannenberg, S. Dapprich, A. D. Daniels, 
 O. Farkas, J. B. Foresman, J. V. Ortiz, J. Cioslowski, 
 and D. J. Fox, Gaussian, Inc., Wallingford CT, 2013.
 
 ******************************************
 Gaussian 09:  ES64L-G09RevE.01 30-Nov-2015
                 9-Jan-2018 
 ******************************************
 %nproc=8
 Will use up to    8 processors via shared memory.
 %mem=32000MB
 %oldchk=h2o.b2plyp.def2svp.nbo6.chk
 %chk=h2o.b2plyp.def2svp.nbo6.freq.chk
 Copying data from "h2o.b2plyp.def2svp.nbo6.chk" to current chk file "h2o.b2plyp.def2svp.nbo6.freq.chk".
 ----------------------------------------------------------------------
 #p b2plyp/def2SVP freq geom=check guess=read gfinput gfoldprint iop(6/
 7=3) scrf(pcm,solvent=toluene) pop=full pop=nbo6 pop=allorbitals symme
 try=loose
 ----------------------------------------------------------------------
 1/10=4,29=2,30=1,38=1/1,3;
 2/12=2,17=4,18=3,40=1/2;
 3/5=43,7=101,11=9,14=-4,16=1,24=11,25=1,30=1,70=2201,71=2,72=13,74=-47,116=-2,140=1/1,2,3;
 4/5=1/1;
 5/5=2,38=6,53=13,98=1/2;
 8/6=3,8=1,10=1,19=11,30=-1/1;
 9/15=3,16=-3/6;
 11/6=1,8=1,15=11,17=12,24=-1,27=1,28=-2,29=300,32=6,42=3/1,2,10;
 10/6=2,21=1/2;
 8/6=4,8=1,10=1,19=11,30=-1/11,4;
 10/5=1,20=4/2;
 11/12=2,14=11,16=1,17=2,28=-2,42=3/2,10,12;
 6/7=3,40=1,87=-1,113=1,114=1,124=3103/1,12;
 7/8=1,10=1,12=2,25=1,44=2/1,2,3,16;
 1/10=4,30=1/3;
 99//99;
 Leave Link    1 at Tue Jan  9 19:08:58 2018, MaxMem=  4194304000 cpu:         1.0
 (Enter /home/chemsoft/gaussian/g09e01/g09/l101.exe)
 ---------------------
 Water B2PLYP/def2-SVP
 ---------------------
 Structure from the checkpoint file:  "h2o.b2plyp.def2svp.nbo6.freq.chk"
 Charge =  0 Multiplicity = 1
 Redundant internal coordinates found in file.
 O,0,0.0512973485,0.,0.0365900431
 H,0,0.1042179552,0.,0.9996386788
 H,0,0.979106987,0.,-0.2269105072
 Recover connectivity data from disk.
 NAtoms=      3 NQM=        3 NQMF=       0 NMMI=      0 NMMIF=      0
                NMic=       0 NMicF=      0.
                    Isotopes and Nuclear Properties:
 (Nuclear quadrupole moments (NQMom) in fm**2, nuclear magnetic moments (NMagM)
  in nuclear magnetons)

  Atom         1           2           3
 IAtWgt=          16           1           1
 AtmWgt=  15.9949146   1.0078250   1.0078250
 NucSpn=           0           1           1
 AtZEff=  -5.6000000  -1.0000000  -1.0000000
 NQMom=    0.0000000   0.0000000   0.0000000
 NMagM=    0.0000000   2.7928460   2.7928460
 AtZNuc=   8.0000000   1.0000000   1.0000000
 Leave Link  101 at Tue Jan  9 19:08:58 2018, MaxMem=  4194304000 cpu:         1.9
 (Enter /home/chemsoft/gaussian/g09e01/g09/l103.exe)

 GradGradGradGradGradGradGradGradGradGradGradGradGradGradGradGradGradGrad
 Berny optimization.
 Initialization pass.
                           ----------------------------
                           !    Initial Parameters    !
                           ! (Angstroms and Degrees)  !
 --------------------------                            --------------------------
 ! Name  Definition              Value          Derivative Info.                !
 --------------------------------------------------------------------------------
 ! R1    R(1,2)                  0.9645         calculate D2E/DX2 analytically  !
 ! R2    R(1,3)                  0.9645         calculate D2E/DX2 analytically  !
 ! A1    A(2,1,3)              102.7094         calculate D2E/DX2 analytically  !
 --------------------------------------------------------------------------------
 Trust Radius=3.00D-01 FncErr=1.00D-07 GrdErr=1.00D-07
 Number of steps in this run=      2 maximum allowed number of steps=      2.
 GradGradGradGradGradGradGradGradGradGradGradGradGradGradGradGradGradGrad

 Leave Link  103 at Tue Jan  9 19:08:58 2018, MaxMem=  4194304000 cpu:         0.0
 (Enter /home/chemsoft/gaussian/g09e01/g09/l202.exe)
                          Input orientation:                          
 ---------------------------------------------------------------------
 Center     Atomic      Atomic             Coordinates (Angstroms)
 Number     Number       Type             X           Y           Z
 ---------------------------------------------------------------------
      1          8           0        0.051297   -0.000000    0.036590
      2          1           0        0.104218   -0.000000    0.999639
      3          1           0        0.979107    0.000000   -0.226911
 ---------------------------------------------------------------------
                    Distance matrix (angstroms):
                    1          2          3
     1  O    0.000000
     2  H    0.964502   0.000000
     3  H    0.964502   1.506603   0.000000
 Stoichiometry    H2O
 Framework group  C2V[C2(O),SGV(H2)]
 Deg. of freedom     2
 Full point group                 C2V     NOp   4
 RotChk:  IX=0 Diff= 4.93D-16
 Largest Abelian subgroup         C2V     NOp   4
 Largest concise Abelian subgroup C2      NOp   2
                         Standard orientation:                         
 ---------------------------------------------------------------------
 Center     Atomic      Atomic             Coordinates (Angstroms)
 Number     Number       Type             X           Y           Z
 ---------------------------------------------------------------------
      1          8           0       -0.000000    0.000000    0.120466
      2          1           0        0.000000    0.753302   -0.481863
      3          1           0       -0.000000   -0.753302   -0.481863
 ---------------------------------------------------------------------
 Rotational constants (GHZ):    778.1805655    441.8391327    281.8238318
 Leave Link  202 at Tue Jan  9 19:08:58 2018, MaxMem=  4194304000 cpu:         0.4
 (Enter /home/chemsoft/gaussian/g09e01/g09/l301.exe)
 Standard basis: def2SVP (5D, 7F)
 ======================================================================================================
                                       Pseudopotential Parameters
 ======================================================================================================
  Center     Atomic      Valence      Angular      Power
  Number     Number     Electrons     Momentum     of R      Exponent        Coefficient   SO-Coeffient
 ======================================================================================================
    1          8
                                   No pseudopotential on this center.
    2          1
                                   No pseudopotential on this center.
    3          1
                                   No pseudopotential on this center.
 ======================================================================================================
 Ernie: Thresh=  0.10000D-02 Tol=  0.10000D-05 Strict=F.
 AO basis set in the form of general basis input (Overlap normalization):
      1 0
 S   5 1.00       0.000000000000
      0.2266176779D+04 -0.5389350392D-02
      0.3408701019D+03 -0.4023472139D-01
      0.7736313517D+02 -0.1800818421D+00
      0.2147964494D+02 -0.4682885766D+00
      0.6658943312D+01 -0.4469261716D+00
 S   1 1.00       0.000000000000
      0.8097597567D+00  0.1000000000D+01
 S   1 1.00       0.000000000000
      0.2553077223D+00  0.1000000000D+01
 P   3 1.00       0.000000000000
      0.1772150432D+02  0.6263024876D-01
      0.3863550544D+01  0.3333113848D+00
      0.1048092088D+01  0.7414863831D+00
 P   1 1.00       0.000000000000
      0.2764154441D+00  0.1000000000D+01
 D   1 1.00       0.000000000000
      0.1200000000D+01  0.1000000000D+01
 ****
      2 0
 S   3 1.00       0.000000000000
      0.1301070100D+02  0.3348548481D-01
      0.1962257200D+01  0.2347218709D+00
      0.4445379600D+00  0.8137702853D+00
 S   1 1.00       0.000000000000
      0.1219496200D+00  0.1000000000D+01
 P   1 1.00       0.000000000000
      0.8000000000D+00  0.1000000000D+01
 ****
      3 0
 S   3 1.00       0.000000000000
      0.1301070100D+02  0.3348548481D-01
      0.1962257200D+01  0.2347218709D+00
      0.4445379600D+00  0.8137702853D+00
 S   1 1.00       0.000000000000
      0.1219496200D+00  0.1000000000D+01
 P   1 1.00       0.000000000000
      0.8000000000D+00  0.1000000000D+01
 ****

 ***********************************************************************************************************************************
 *             ATOMIC CENTER             *        ATOMIC ORBITAL       *                     GAUSSIAN FUNCTIONS                    *
 ***********************************************************************************************************************************
 *                                       * FUNCTION    SHELL    SCALE  *                                                           *
 *    ATOM   X-COORD  Y-COORD  Z-COORD   *  NUMBER     TYPE     FACTOR *  EXPONENT    S-COEF      P-COEF      D-COEF      F-COEF   *
 ***********************************************************************************************************************************
 *     O     -0.00000  0.00000  0.22765                                                                                            *
+                                                1   S           1.00                                                               
+                                                                      0.226618D+04-.126159D+010.000000D+000.000000D+000.000000D+00 
 *                                                                     0.340870D+03-.227485D+010.000000D+000.000000D+000.000000D+00*
 *                                                                     0.773631D+02-.334796D+010.000000D+000.000000D+000.000000D+00*
 *                                                                     0.214796D+02-.333000D+010.000000D+000.000000D+000.000000D+00*
 *                                                                     0.665894D+01-.132038D+010.000000D+000.000000D+000.000000D+00*
 *                                               2   S           1.00                                                              *
+                                                                      0.809760D+000.608383D+000.000000D+000.000000D+000.000000D+00 
 *                                               3   S           1.00                                                              *
+                                                                      0.255308D+000.255981D+000.000000D+000.000000D+000.000000D+00 
 *                                           4-  6   P           1.00                                                              *
+                                                                      0.177215D+020.000000D+000.324601D+010.000000D+000.000000D+00 
 *                                                                     0.386355D+010.000000D+000.257350D+010.000000D+000.000000D+00*
 *                                                                     0.104809D+010.000000D+000.112084D+010.000000D+000.000000D+00*
 *                                           7-  9   P           1.00                                                              *
+                                                                      0.276415D+000.000000D+000.285689D+000.000000D+000.000000D+00 
 *                                          10- 14   D           1.00                                                              *
+                                                                      0.120000D+010.000000D+000.000000D+000.226452D+010.000000D+00 
 *---------------------------------------------------------------------------------------------------------------------------------*
 *     H     -0.00000  1.42353 -0.91059                                                                                            *
+                                               15   S           1.00                                                               
+                                                                      0.130107D+020.163490D+000.000000D+000.000000D+000.000000D+00 
 *                                                                     0.196226D+010.277352D+000.000000D+000.000000D+000.000000D+00*
 *                                                                     0.444538D+000.315750D+000.000000D+000.000000D+000.000000D+00*
 *                                              16   S           1.00                                                              *
+                                                                      0.121950D+000.147077D+000.000000D+000.000000D+000.000000D+00 
 *                                          17- 19   P           1.00                                                              *
+                                                                      0.800000D+000.000000D+000.107846D+010.000000D+000.000000D+00 
 *---------------------------------------------------------------------------------------------------------------------------------*
 *     H     -0.00000 -1.42353 -0.91059                                                                                            *
+                                               20   S           1.00                                                               
+                                                                      0.130107D+020.163490D+000.000000D+000.000000D+000.000000D+00 
 *                                                                     0.196226D+010.277352D+000.000000D+000.000000D+000.000000D+00*
 *                                                                     0.444538D+000.315750D+000.000000D+000.000000D+000.000000D+00*
 *                                              21   S           1.00                                                              *
+                                                                      0.121950D+000.147077D+000.000000D+000.000000D+000.000000D+00 
 *                                          22- 24   P           1.00                                                              *
+                                                                      0.800000D+000.000000D+000.107846D+010.000000D+000.000000D+00 
 ***********************************************************************************************************************************
 There are    12 symmetry adapted cartesian basis functions of A1  symmetry.
 There are     2 symmetry adapted cartesian basis functions of A2  symmetry.
 There are     4 symmetry adapted cartesian basis functions of B1  symmetry.
 There are     7 symmetry adapted cartesian basis functions of B2  symmetry.
 There are    11 symmetry adapted basis functions of A1  symmetry.
 There are     2 symmetry adapted basis functions of A2  symmetry.
 There are     4 symmetry adapted basis functions of B1  symmetry.
 There are     7 symmetry adapted basis functions of B2  symmetry.
    24 basis functions,    39 primitive gaussians,    25 cartesian basis functions
     5 alpha electrons        5 beta electrons
       nuclear repulsion energy         9.1296953993 Hartrees.
 IExCor=  419 DFT=T Ex+Corr=B2PLYP ExCW=0 ScaHFX=  0.530000
 ScaDFX=  0.470000  0.470000  0.730000  0.730000 ScalE2=  0.270000  0.270000
 IRadAn=      0 IRanWt=     -1 IRanGd=            0 ICorTp=0 IEmpDi=  4
 NAtoms=    3 NActive=    3 NUniq=    2 SFac= 2.25D+00 NAtFMM=   60 NAOKFM=F Big=F
 Integral buffers will be    131072 words long.
 Regular integral format.
 Two-electron integral symmetry is turned on.
 Force inversion solution in PCM.
 ------------------------------------------------------------------------------
 Polarizable Continuum Model (PCM)
 =================================
 Model                : PCM (using non-symmetric T matrix).
 Atomic radii         : UFF (Universal Force Field).
 Polarization charges : Total charges.
 Charge compensation  : None.
 Solution method      : Matrix inversion.
 Cavity type          : Scaled VdW (van der Waals Surface) (Alpha=1.100).
 Cavity algorithm     : GePol (No added spheres)
                        Default sphere list used, NSphG=    3.
                        Lebedev-Laikov grids with approx.  5.0 points / Ang**2.
                        Smoothing algorithm: York/Karplus (Gamma=1.0000).
                        Polarization charges: spherical gaussians, with
                                              point-specific exponents (IZeta= 3).
                        Self-potential: point-specific (ISelfS= 7).
                        Self-field    : sphere-specific E.n sum rule (ISelfD= 2).
 1st derivatives      : Analytical E(r).r(x)/FMM algorithm (CHGder, D1EAlg=3).
                        Cavity 1st derivative terms included.
 2nd derivatives      : Analytical E(r).r(xy)/FMM algorithm (CHGder, D2EAlg=3).
                        Cavity 2nd derivative terms included.
 Solvent              : Toluene, Eps=   2.374100 Eps(inf)=   2.238315
 ------------------------------------------------------------------------------
 Spheres list:
 ISph  on   Nord     Re0    Alpha      Xe            Ye            Ze
    1   O      1    1.7500  1.100     -0.000000      0.000000      0.120466
    2   H      2    1.4430  1.100     -0.000000      0.753302     -0.481863
    3   H      3    1.4430  1.100     -0.000000     -0.753302     -0.481863
 ------------------------------------------------------------------------------
 GePol: Number of generator spheres                  =       3
 GePol: Total number of spheres                      =       3
 GePol: Number of exposed spheres                    =       3 (100.00%)
 GePol: Number of points                             =     384
 GePol: Average weight of points                     =       0.14
 GePol: Minimum weight of points                     =   0.14D-03
 GePol: Maximum weight of points                     =    0.20212
 GePol: Number of points with low weight             =       5
 GePol: Fraction of low-weight points (<1% of avg)   =       1.30%
 GePol: Cavity surface area                          =     55.548 Ang**2
 GePol: Cavity volume                                =     37.425 Ang**3
 Leave Link  301 at Tue Jan  9 19:08:58 2018, MaxMem=  4194304000 cpu:         0.4
 (Enter /home/chemsoft/gaussian/g09e01/g09/l302.exe)
 NPDir=0 NMtPBC=     1 NCelOv=     1 NCel=       1 NClECP=     1 NCelD=      1
         NCelK=      1 NCelE2=     1 NClLst=     1 CellRange=     0.0.
 One-electron integrals computed using PRISM.
 One-electron integral symmetry used in STVInt
   4 Symmetry operations used in ECPInt.
 ECPInt:  NShTT=      78 NPrTT=     272 LenC2=      79 LenP2D=     271.
 LDataN:  DoStor=T MaxTD1= 4 Len=   56
 NBasis=    24 RedAO= T EigKep=  5.95D-02  NBF=    11     2     4     7
 NBsUse=    24 1.00D-06 EigRej= -1.00D+00 NBFU=    11     2     4     7
 Precomputing XC quadrature grid using
 IXCGrd= 4 IRadAn=           0 IRanWt=          -1 IRanGd=           0 AccXCQ= 0.00D+00.
 Generated NRdTot=       0 NPtTot=           0 NUsed=           0 NTot=          32
 NSgBfM=    25    25    25    25    25 MxSgAt=     3 MxSgA2=     3.
 Leave Link  302 at Tue Jan  9 19:08:59 2018, MaxMem=  4194304000 cpu:         2.9
 (Enter /home/chemsoft/gaussian/g09e01/g09/l303.exe)
 DipDrv:  MaxL=1.
 Leave Link  303 at Tue Jan  9 19:08:59 2018, MaxMem=  4194304000 cpu:         1.1
 (Enter /home/chemsoft/gaussian/g09e01/g09/l401.exe)
 Initial guess from the checkpoint file:  "h2o.b2plyp.def2svp.nbo6.freq.chk"
 B after Tr=    -0.000000    0.000000    0.000000
         Rot=    1.000000    0.000000   -0.000000    0.000000 Ang=   0.00 deg.
 Guess basis will be translated and rotated to current coordinates.
 JPrj=2 DoOrth=T DoCkMO=T.
 Initial guess orbital symmetries:
       Occupied  (A1) (A1) (B2) (A1) (B1)
       Virtual   (A1) (B2) (B2) (A1) (A1) (B1) (B2) (A1) (A2) (A1)
                 (B1) (B2) (B2) (A1) (B1) (A2) (A1) (A1) (B2)
 The electronic state of the initial guess is 1-A1.
 Leave Link  401 at Tue Jan  9 19:08:59 2018, MaxMem=  4194304000 cpu:         3.4
 (Enter /home/chemsoft/gaussian/g09e01/g09/l502.exe)
 Closed shell SCF:
 Using DIIS extrapolation, IDIIS=  1040.
 Integral symmetry usage will be decided dynamically.
 Keep R1 ints in memory in symmetry-blocked form, NReq=3094170.
 IVT=       20889 IEndB=       20889 NGot=  4194304000 MDV=  4194269413
 LenX=  4194269413 LenY=  4194268347
 Requested convergence on RMS density matrix=1.00D-08 within 128 cycles.
 Requested convergence on MAX density matrix=1.00D-06.
 Requested convergence on             energy=1.00D-06.
 No special actions if energy rises.
 FoFCou: FMM=F IPFlag=           0 FMFlag=           0 FMFlg1=           0
         NFxFlg=           0 DoJE=F BraDBF=F KetDBF=F FulRan=T
         wScrn=  0.000000 ICntrl=     600 IOpCl=  0 I1Cent=           0 NGrid=           0
         NMat0=    1 NMatS0=    300 NMatT0=    0 NMatD0=    1 NMtDS0=    0 NMtDT0=    0
 Petite list used in FoFCou.

 Cycle   1  Pass 1  IDiag  1:
 Inv3:  Mode=1 IEnd=      442368.
 Iteration    1 A*A^-1 deviation from unit magnitude is 2.89D-15 for    302.
 Iteration    1 A*A^-1 deviation from orthogonality  is 1.89D-15 for    281      9.
 Iteration    1 A^-1*A deviation from unit magnitude is 2.00D-15 for    267.
 Iteration    1 A^-1*A deviation from orthogonality  is 6.04D-16 for    239    184.
 E= -76.2278509310562    
 DIIS: error= 2.12D-09 at cycle   1 NSaved=   1.
 NSaved= 1 IEnMin= 1 EnMin= -76.2278509310562     IErMin= 1 ErrMin= 2.12D-09
 ErrMax= 2.12D-09  0.00D+00 EMaxC= 1.00D-01 BMatC= 7.27D-17 BMatP= 7.27D-17
 IDIUse=1 WtCom= 1.00D+00 WtEn= 0.00D+00
 Coeff-Com:  0.100D+01
 Coeff:      0.100D+01
 Gap=     0.483 Goal=   None    Shift=    0.000
 RMSDP=4.26D-10 MaxDP=3.86D-09              OVMax= 3.87D-09

 Error on total polarization charges =  0.00078
 SCF Done:  E(RB2PLYP) =  -76.2278509311     A.U. after    1 cycles
            NFock=  1  Conv=0.43D-09     -V/T= 2.0055
 KE= 7.581340555200D+01 PE=-1.988167549287D+02 EE= 3.764580304638D+01
 Leave Link  502 at Tue Jan  9 19:09:00 2018, MaxMem=  4194304000 cpu:         4.0
 (Enter /home/chemsoft/gaussian/g09e01/g09/l801.exe)
 DoSCS=T DFT=T ScalE2(SS,OS)=  0.270000  0.270000
 ExpMin= 1.22D-01 ExpMax= 2.27D+03 ExpMxC= 3.41D+02 IAcc=3 IRadAn=         5 AccDes= 0.00D+00
 HarFok:  IExCor=  205 AccDes= 0.00D+00 IRadAn=         5 IDoV=-2 UseB2=F ITyADJ=14
 ICtDFT= 12500011 ScaDFX=  1.000000  1.000000  1.000000  1.000000
 Largest valence mixing into a core orbital is  4.85D-05
 Largest core mixing into a valence orbital is  1.07D-05
 Range of M.O.s used for correlation:     2    24
 NBasis=    24 NAE=     5 NBE=     5 NFC=     1 NFV=     0
 NROrb=     23 NOA=     4 NOB=     4 NVA=    19 NVB=    19
 Leave Link  801 at Tue Jan  9 19:09:00 2018, MaxMem=  4194304000 cpu:         0.3
 (Enter /home/chemsoft/gaussian/g09e01/g09/l906.exe)
 DoSCS=T DFT=T ScalE2(SS,OS)=  0.270000  0.270000
 Frozen-core derivative calculation, NFC=   1 NFV=   0.
 FulOut=F Deriv=T AODrv=T NAtomX=     3
   MMem=           0  MDisk=           4 MDiskD=           4
  W3Min=        3000 MinDsk=       64200 NBas6D=          25
 NBas2D=         352    NTT=         325    LW2=     3300000
    MDV=  4194291300 MDiskM=     2329050 NBas2p=         252
 Disk-based method using ON**2 memory for  4 occupieds at a time.
 Permanent disk used for amplitudes=       10735 words.
 Estimated scratch disk usage=      830272 words.
 IMap=   1   2   3   4   5
 Actual    scratch disk usage=      830272 words.
 JobTyp=1 Pass  1:  I=   2 to   5 NPSUse=  8 ParTrn=T ParDer=T DoDerP=T.
 (rs|ai) integrals will be sorted in core.
 Spin components of T(2) and E(2):
     alpha-alpha T2 =       0.9037900571D-02 E2=     -0.8088366134D-02
     alpha-beta  T2 =       0.5519107652D-01 E2=     -0.4849302696D-01
     beta-beta   T2 =       0.9037900571D-02 E2=     -0.8088366134D-02
 The integrals were generated   1 times.
 E2(B2PLYP) =    -0.6466975923D-01 E(B2PLYP) =    -0.76292520690287D+02
 Leave Link  906 at Tue Jan  9 19:09:00 2018, MaxMem=  4194304000 cpu:         1.9
 (Enter /home/chemsoft/gaussian/g09e01/g09/l1101.exe)
 Using compressed Sx but separate Hx and Fx, NAtomX=     3.
 Will process      4 centers per pass.
   4 Symmetry operations used in ECPInt.
 ECPInt:  NShTT=      78 NPrTT=     272 LenC2=      79 LenP2D=     271.
 LDataN:  DoStor=T MaxTD1= 5 Len=  102
 Leave Link 1101 at Tue Jan  9 19:09:01 2018, MaxMem=  4194304000 cpu:         2.7
 (Enter /home/chemsoft/gaussian/g09e01/g09/l1102.exe)
 Leave Link 1102 at Tue Jan  9 19:09:01 2018, MaxMem=  4194304000 cpu:         0.1
 (Enter /home/chemsoft/gaussian/g09e01/g09/l1110.exe)
 Forming Gx(P) for the SCF density, NAtomX=     3.
 Integral derivatives from FoFJK, PRISM(SPDF).
 Do as many integral derivatives as possible in FoFJK.
 G2DrvN: MDV=    4194303872.
 G2DrvN: will do     4 centers at a time, making    1 passes.
 Calling FoFCou, ICntrl=  3107 FMM=F I1Cent=   0 AccDes= 0.00D+00.
 FoFJK:  IHMeth= 1 ICntrl=    3107 DoSepK=F KAlg= 0 I1Cent=   0 FoldK=F
 IRaf=         0 NMat=   1 IRICut=       1 DoRegI=T DoRafI=F ISym2E= 1.
 FoFCou: FMM=F IPFlag=           0 FMFlag=      100000 FMFlg1=           0
         NFxFlg=           0 DoJE=F BraDBF=F KetDBF=F FulRan=T
         wScrn=  0.000000 ICntrl=    3107 IOpCl=  0 I1Cent=           0 NGrid=           0
         NMat0=    1 NMatS0=      1 NMatT0=    0 NMatD0=    1 NMtDS0=    0 NMtDT0=    0
 Petite list used in FoFCou.
 NEqPCM:  Using equilibrium solvation (IEInf=0, Eps=   2.3741, EpsInf=   2.2383)
 G2PCM: DoFxE=T DoFxN=T DoGrad=T DoDP/DQ/DG/TGxP=FFFF NFrqRd=   0 IEInf=0 SqF1=F DoCFld=F IF1Alg=4.
 GePol: Maximum number of non-zero 1st derivatives   =     258
 End of G2Drv F.D. properties file   721 does not exist.
 End of G2Drv F.D. properties file   722 does not exist.
 End of G2Drv F.D. properties file   788 does not exist.
 Leave Link 1110 at Tue Jan  9 19:09:03 2018, MaxMem=  4194304000 cpu:         9.3
 (Enter /home/chemsoft/gaussian/g09e01/g09/l1002.exe)
 Minotr:  Closed shell wavefunction.
          IDoAtm=111
 NEqPCM:  Using equilibrium solvation (IEInf=0, Eps=   2.3741, EpsInf=   2.2383)
          Frozen-core window.
          Direct CPHF calculation.
          Differentiating once with respect to electric field.
                with respect to dipole field.
          Differentiating once with respect to nuclear coordinates.
          Requested convergence is 1.0D-08 RMS, and 1.0D-07 maximum.
          Secondary convergence is 1.0D-12 RMS, and 1.0D-12 maximum.
          NewPWx=T KeepS1=T KeepF1=T KeepIn=T MapXYZ=F SortEE=F KeepMc=T.
          MDV=    4194303943 using IRadAn=       2.
 Generate precomputed XC quadrature information.
 Keep R1 ints in memory in symmetry-blocked form, NReq=1869201.
 FoFCou: FMM=F IPFlag=           0 FMFlag=           0 FMFlg1=           0
         NFxFlg=           0 DoJE=F BraDBF=F KetDBF=F FulRan=T
         wScrn=  0.000000 ICntrl=     600 IOpCl=  0 I1Cent=           0 NGrid=           0
         NMat0=    1 NMatS0=    300 NMatT0=    0 NMatD0=    1 NMtDS0=    0 NMtDT0=    0
 Petite list used in FoFCou.
          Solving linear equations simultaneously, MaxMat=       0.
          There are    12 degrees of freedom in the 1st order CPHF.  IDoFFX=6 NUNeed=    12.
      9 vectors produced by pass  0 Test12= 7.92D-16 8.33D-09 XBig12= 1.93D+00 9.25D-01.
 AX will form     9 AO Fock derivatives at one time.
      9 vectors produced by pass  1 Test12= 7.92D-16 8.33D-09 XBig12= 1.55D-01 2.10D-01.
      9 vectors produced by pass  2 Test12= 7.92D-16 8.33D-09 XBig12= 3.45D-03 2.73D-02.
      9 vectors produced by pass  3 Test12= 7.92D-16 8.33D-09 XBig12= 1.56D-05 1.64D-03.
      9 vectors produced by pass  4 Test12= 7.92D-16 8.33D-09 XBig12= 4.44D-08 7.94D-05.
      7 vectors produced by pass  5 Test12= 7.92D-16 8.33D-09 XBig12= 1.37D-10 3.97D-06.
      2 vectors produced by pass  6 Test12= 7.92D-16 8.33D-09 XBig12= 5.92D-14 1.43D-07.
 InvSVY:  IOpt=1 It=  1 EMax= 7.77D-16
 Solved reduced A of dimension    54 with     9 vectors.
 FullF1:  Do perturbations    1 to    12.
 Saving first derivative matrices.
 End of Minotr F.D. properties file   721 does not exist.
 End of Minotr F.D. properties file   722 does not exist.
 End of Minotr F.D. properties file   788 does not exist.
 Leave Link 1002 at Tue Jan  9 19:09:07 2018, MaxMem=  4194304000 cpu:        32.9
 (Enter /home/chemsoft/gaussian/g09e01/g09/l811.exe)
 MDV=  4194304000.
 DoSCS=T DFT=T ScalE2(SS,OS)=  0.270000  0.270000
 Form MO integral derivatives with frozen-active canonical formalism.
 MOERI=1 MOERIx=1 NAtoms=     3 NAtomX=     3.
 Discarding MO integrals.
 MO basis two electron integral derivatives will not be stored on disk.
 IAlg= 3 DoFC=T DoPWx=T Debug=F.
 Frozen-core window:  NFC=   1 NFV=   0.
 Reordered first order wavefunction length =        18050
 In DefCFB: NBatch=  1 ICI=  5 ICA= 19 LFMax= 19
            Large arrays: LIAPS=      228000 LIARS=      249375 words.
 In StABat: MaxSiz= 15 MinSiz= 10 NAtomB=  2
 DoIAMN: NPSUse=  8.
 Leave Link  811 at Tue Jan  9 19:09:08 2018, MaxMem=  4194304000 cpu:         1.6
 (Enter /home/chemsoft/gaussian/g09e01/g09/l804.exe)
 Frozen-core window:  NFC=   1 NFV=   0.
 Closed-shell transformation, MDV=  4194304000 ITran=4 ISComp=1.
 Semi-Direct transformation.
 ModeAB=           4 MOrb=             5 LenV=    4194134777
 LASXX=        27985 LTotXX=       27985 LenRXX=       59560
 LTotAB=       31575 MaxLAS=       30240 LenRXY=           0
 NonZer=       87545 LenScr=      785920 LnRSAI=       30240
 LnScr1=      785920 LExtra=           0 Total=      1661640
 MaxDsk=          -1 SrtSym=           T ITran=            4
 DoSDTr:  NPSUse=  8
 JobTyp=0 Pass  1:  I=   1 to   5.
 (rs|ai) integrals will be sorted in core.
 Complete sort for first half transformation.
 First half transformation complete.
 Complete sort for second half transformation.
 Second half transformation complete.
 DoSCS=T DFT=T ScalE2(SS,OS)=  0.270000  0.270000
 Spin components of T(2) and E(2):
     alpha-alpha T2 =       0.9037900571D-02 E2=     -0.8088366134D-02
     alpha-beta  T2 =       0.5519107652D-01 E2=     -0.4849302696D-01
     beta-beta   T2 =       0.9037900571D-02 E2=     -0.8088366134D-02
 E2(B2PLYP) =    -0.6466975923D-01 E(B2PLYP) =    -0.76292520690287D+02
 Leave Link  804 at Tue Jan  9 19:09:10 2018, MaxMem=  4194304000 cpu:        15.2
 (Enter /home/chemsoft/gaussian/g09e01/g09/l1002.exe)
 Minotr:  Closed shell wavefunction.
          Computing MP2/KS-MP2 derivatives.
          Using Z-Vector for PSCF gradient.
          Skipping F1 and S1 gradient terms here.
          IDoAtm=111
 NEqPCM:  Using equilibrium solvation (IEInf=0, Eps=   2.3741, EpsInf=   2.2383)
          Frozen-core window.
          Direct CPHF calculation.
          Differentiating once with respect to electric field.
                with respect to dipole field.
          Differentiating once with respect to nuclear coordinates.
          Using symmetry in CPHF.
          Requested convergence is 1.0D-10 RMS, and 1.0D-09 maximum.
          NewPWx=T KeepS1=F KeepF1=F KeepIn=T MapXYZ=F SortEE=F KeepMc=T.
          MDV=    4194303943 using IRadAn=       0.
 Using stored XC quadrature information.
 Keep R1 ints in memory in symmetry-blocked form, NReq=1868579.
 FoFCou: FMM=F IPFlag=           0 FMFlag=           0 FMFlg1=           0
         NFxFlg=           0 DoJE=F BraDBF=F KetDBF=F FulRan=T
         wScrn=  0.000000 ICntrl=     600 IOpCl=  0 I1Cent=           0 NGrid=           0
         NMat0=    1 NMatS0=    300 NMatT0=    0 NMatD0=    1 NMtDS0=    0 NMtDT0=    0
 Petite list used in FoFCou.
          Solving linear equations separately, MaxMat=       0.
          There are     1 degrees of freedom in the 1st order CPHF.  IDoFFX=0 NUNeed=     1.
 LinEq1:  Iter=  0 NonCon=     1 RMS=2.23D-03 Max=1.17D-02 NDo=     1
 AX will form     1 AO Fock derivatives at one time.
 LinEq1:  Iter=  1 NonCon=     1 RMS=2.54D-04 Max=1.48D-03 NDo=     1
 LinEq1:  Iter=  2 NonCon=     1 RMS=1.45D-04 Max=8.53D-04 NDo=     1
 LinEq1:  Iter=  3 NonCon=     1 RMS=1.51D-05 Max=6.71D-05 NDo=     1
 LinEq1:  Iter=  4 NonCon=     1 RMS=2.42D-06 Max=9.45D-06 NDo=     1
 LinEq1:  Iter=  5 NonCon=     1 RMS=3.05D-07 Max=1.80D-06 NDo=     1
 LinEq1:  Iter=  6 NonCon=     1 RMS=1.62D-08 Max=6.17D-08 NDo=     1
 LinEq1:  Iter=  7 NonCon=     1 RMS=1.15D-09 Max=3.99D-09 NDo=     1
 LinEq1:  Iter=  8 NonCon=     0 RMS=6.36D-11 Max=3.43D-10 NDo=     1
 Linear equations converged to 1.000D-10 1.000D-09 after     8 iterations.
 End of Minotr F.D. properties file   721 does not exist.
 End of Minotr F.D. properties file   722 does not exist.
 End of Minotr F.D. properties file   788 does not exist.
 Leave Link 1002 at Tue Jan  9 19:09:11 2018, MaxMem=  4194304000 cpu:         5.2
 (Enter /home/chemsoft/gaussian/g09e01/g09/l1102.exe)
 Use density number 2.
 Symmetrizing basis deriv contribution to polar:
 IMax=3 JMax=2 DiffMx= 0.00D+00
 Leave Link 1102 at Tue Jan  9 19:09:11 2018, MaxMem=  4194304000 cpu:         0.5
 (Enter /home/chemsoft/gaussian/g09e01/g09/l1110.exe)
 Forming Gx(P) for generalized density number  2 NAtomX=     3.
 Integral derivatives from FoFJK, PRISM(SPDF).
 Do as many integral derivatives as possible in FoFJK.
 G2DrvN: MDV=    4194303872.
 G2DrvN: will do     4 centers at a time, making    1 passes.
 Calling FoFCou, ICntrl=  3107 FMM=F I1Cent=   0 AccDes= 0.00D+00.
 FoFJK:  IHMeth= 1 ICntrl=    3107 DoSepK=F KAlg= 0 I1Cent=   0 FoldK=F
 IRaf=         0 NMat=   1 IRICut=       1 DoRegI=T DoRafI=F ISym2E= 1.
 FoFCou: FMM=F IPFlag=           0 FMFlag=      100000 FMFlg1=           0
         NFxFlg=           0 DoJE=F BraDBF=F KetDBF=F FulRan=T
         wScrn=  0.000000 ICntrl=    3107 IOpCl=  0 I1Cent=           0 NGrid=           0
         NMat0=    1 NMatS0=      1 NMatT0=    0 NMatD0=    1 NMtDS0=    0 NMtDT0=    0
 Petite list used in FoFCou.
 NEqPCM:  Using equilibrium solvation (IEInf=0, Eps=   2.3741, EpsInf=   2.2383)
 G2PCM: DoFxE=T DoFxN=F DoGrad=F DoDP/DQ/DG/TGxP=FFFF NFrqRd=   0 IEInf=0 SqF1=F DoCFld=F IF1Alg=4.
 End of G2Drv F.D. properties file   721 does not exist.
 End of G2Drv F.D. properties file   722 does not exist.
 End of G2Drv F.D. properties file   788 does not exist.
 Leave Link 1110 at Tue Jan  9 19:09:12 2018, MaxMem=  4194304000 cpu:         6.1
 (Enter /home/chemsoft/gaussian/g09e01/g09/l1112.exe)
 MP22nd: MDV=    4194304000
 DoSCS=T DFT=T ScalE2(SS,OS)=  0.270000  0.270000
 Using stored XC quadrature information.
 This link is doing NAtomX=     3 total of    12 degrees of freedom.
 Using ON3 I/O method in MakUI.
 Frozen-core window:  NFC=   1 NFV=   0.
 Using Ix for Sx.
 Use MO integrals over full window.
 Using OV2 memory method for fx*t*t/D, MaxI=     5 DoOO2=F NP=   8.
 R2 and R3 integrals will be kept in memory, NReq=      925950.
 FoFCou: FMM=F IPFlag=           0 FMFlag=           0 FMFlg1=           0
         NFxFlg=           0 DoJE=F BraDBF=F KetDBF=F FulRan=T
         wScrn=  0.000000 ICntrl=     600 IOpCl=  0 I1Cent=           0 NGrid=           0
         NMat0=    1 NMatS0=      1 NMatT0=    0 NMatD0=    1 NMtDS0=    0 NMtDT0=    0
 Symmetry not used in FoFCou.
 DD1Dir will call FoFMem   1 times, MxPair=        40
 NAB=    15 NAA=    10 NBB=     0.
 Symmetry is being used.
 FoFJK:  IHMeth= 1 ICntrl=       0 DoSepK=F KAlg= 0 I1Cent=   0 FoldK=F
 IRaf=         0 NMat=  12 IRICut=      30 DoRegI=T DoRafI=T ISym2E= 2.
 D1PCM: PCM CHGder 1st derivatives, ID1Alg=3 FixD1E=F DoIter=F DoCFld=F I1PDM=2.
 Discarding MO integrals.
 Leave Link 1112 at Tue Jan  9 19:09:20 2018, MaxMem=  4194304000 cpu:        55.2
 (Enter /home/chemsoft/gaussian/g09e01/g09/l601.exe)
 Copying SCF densities to generalized density rwf, IOpCl= 0 IROHF=0.

 **********************************************************************

            Population analysis using the SCF density.

 **********************************************************************

 Orbital symmetries:
       Occupied  (A1) (A1) (B2) (A1) (B1)
       Virtual   (A1) (B2) (B2) (A1) (A1) (B1) (B2) (A1) (A2) (A1)
                 (B1) (B2) (B2) (A1) (B1) (A2) (A1) (A1) (B2)
 The electronic state is 1-A1.
 Alpha  occ. eigenvalues --  -19.71682  -1.11995  -0.58784  -0.45528  -0.37962
 Alpha virt. eigenvalues --    0.10383   0.18490   0.64948   0.72770   1.02188
 Alpha virt. eigenvalues --    1.03231   1.11308   1.19851   1.45643   1.49361
 Alpha virt. eigenvalues --    1.64754   1.90693   2.34482   2.39243   3.11400
 Alpha virt. eigenvalues --    3.15026   3.34461   3.64623   3.99292
     Molecular Orbital Coefficients:
                           1         2         3         4         5
                        (A1)--O   (A1)--O   (B2)--O   (A1)--O   (B1)--O
     Eigenvalues --   -19.71682  -1.11995  -0.58784  -0.45528  -0.37962
   1 1   O  1S          0.98951   0.27794   0.00000   0.10274   0.00000
   2        2S         -0.03665   0.55290   0.00000   0.20613   0.00000
   3        3S          0.01238   0.27427   0.00000   0.34970   0.00000
   4        4PX         0.00000   0.00000   0.00000   0.00000   0.63509
   5        4PY         0.00000   0.00000   0.50121   0.00000   0.00000
   6        4PZ         0.00291  -0.10410   0.00000   0.54698   0.00000
   7        5PX         0.00000   0.00000   0.00000   0.00000   0.49479
   8        5PY         0.00000   0.00000   0.22052   0.00000   0.00000
   9        5PZ        -0.00012   0.00464   0.00000   0.35124   0.00000
  10        6D 0       -0.00017   0.00232   0.00000  -0.01789   0.00000
  11        6D+1        0.00000   0.00000   0.00000   0.00000  -0.01858
  12        6D-1        0.00000   0.00000  -0.02416   0.00000   0.00000
  13        6D+2        0.00108  -0.00459   0.00000   0.00216   0.00000
  14        6D-2        0.00000   0.00000   0.00000   0.00000   0.00000
  15 2   H  1S          0.00208   0.19844   0.32326  -0.20353   0.00000
  16        2S         -0.00207   0.01015   0.09549  -0.05599   0.00000
  17        3PX         0.00000   0.00000   0.00000   0.00000   0.02889
  18        3PY        -0.00222  -0.03153  -0.01711   0.02738   0.00000
  19        3PZ         0.00181   0.01662   0.02851   0.00916   0.00000
  20 3   H  1S          0.00208   0.19844  -0.32326  -0.20353   0.00000
  21        2S         -0.00207   0.01015  -0.09549  -0.05599   0.00000
  22        3PX         0.00000   0.00000   0.00000   0.00000   0.02889
  23        3PY         0.00222   0.03153  -0.01711  -0.02738   0.00000
  24        3PZ         0.00181   0.01662  -0.02851   0.00916   0.00000
                           6         7         8         9        10
                        (A1)--V   (B2)--V   (B2)--V   (A1)--V   (A1)--V
     Eigenvalues --     0.10383   0.18490   0.64948   0.72770   1.02188
   1 1   O  1S          0.09687   0.00000   0.00000  -0.11050  -0.14703
   2        2S          0.13818   0.00000   0.00000  -0.40480  -0.64565
   3        3S          1.01572   0.00000   0.00000   0.43861   0.16468
   4        4PX         0.00000   0.00000   0.00000   0.00000   0.00000
   5        4PY         0.00000  -0.33137  -0.27872   0.00000   0.00000
   6        4PZ        -0.21535   0.00000   0.00000   0.37483  -0.77673
   7        5PX         0.00000   0.00000   0.00000   0.00000   0.00000
   8        5PY         0.00000  -0.62508  -0.44720   0.00000   0.00000
   9        5PZ        -0.35770   0.00000   0.00000   0.00179   1.15013
  10        6D 0        0.00849   0.00000   0.00000   0.00294  -0.00517
  11        6D+1        0.00000   0.00000   0.00000   0.00000   0.00000
  12        6D-1        0.00000   0.01220  -0.10409   0.00000   0.00000
  13        6D+2       -0.00635   0.00000   0.00000  -0.09784  -0.01216
  14        6D-2        0.00000   0.00000   0.00000   0.00000   0.00000
  15 2   H  1S         -0.09149   0.06980   0.97068   0.82942   0.38812
  16        2S         -0.85637   1.36216  -0.76502  -0.60965  -0.01748
  17        3PX         0.00000   0.00000   0.00000   0.00000   0.00000
  18        3PY         0.00570  -0.00566   0.04736   0.22257  -0.04225
  19        3PZ        -0.00597   0.00234  -0.11028  -0.05502   0.12835
  20 3   H  1S         -0.09149  -0.06980  -0.97068   0.82942   0.38812
  21        2S         -0.85637  -1.36216   0.76502  -0.60965  -0.01748
  22        3PX         0.00000   0.00000   0.00000   0.00000   0.00000
  23        3PY        -0.00570  -0.00566   0.04736  -0.22257   0.04225
  24        3PZ        -0.00597  -0.00234   0.11028  -0.05502   0.12835
                          11        12        13        14        15
                        (B1)--V   (B2)--V   (A1)--V   (A2)--V   (A1)--V
     Eigenvalues --     1.03231   1.11308   1.19851   1.45643   1.49361
   1 1   O  1S          0.00000   0.00000  -0.23960   0.00000  -0.08536
   2        2S          0.00000   0.00000  -1.51584   0.00000  -0.70682
   3        3S          0.00000   0.00000   2.75475   0.00000   1.70228
   4        4PX        -0.96617   0.00000   0.00000   0.00000   0.00000
   5        4PY         0.00000  -0.78062   0.00000   0.00000   0.00000
   6        4PZ         0.00000   0.00000   0.11497   0.00000   0.08267
   7        5PX         1.02644   0.00000   0.00000   0.00000   0.00000
   8        5PY         0.00000   1.72745   0.00000   0.00000   0.00000
   9        5PZ         0.00000   0.00000  -0.66374   0.00000  -1.18871
  10        6D 0        0.00000   0.00000   0.04355   0.00000  -0.18841
  11        6D+1        0.00343   0.00000   0.00000   0.00000   0.00000
  12        6D-1        0.00000  -0.03296   0.00000   0.00000   0.00000
  13        6D+2        0.00000   0.00000   0.05151   0.00000   0.02103
  14        6D-2        0.00000   0.00000   0.00000   0.17136   0.00000
  15 2   H  1S          0.00000  -0.33213  -0.54210   0.00000  -0.74794
  16        2S          0.00000  -0.81653  -0.49957   0.00000  -0.18380
  17        3PX         0.01100   0.00000   0.00000   0.66905   0.00000
  18        3PY         0.00000   0.23272  -0.03296   0.00000   0.44923
  19        3PZ         0.00000  -0.14877  -0.32288   0.00000   0.42505
  20 3   H  1S          0.00000   0.33213  -0.54210   0.00000  -0.74794
  21        2S          0.00000   0.81653  -0.49957   0.00000  -0.18380
  22        3PX         0.01100   0.00000   0.00000  -0.66905   0.00000
  23        3PY         0.00000   0.23272   0.03296   0.00000  -0.44923
  24        3PZ         0.00000   0.14877  -0.32288   0.00000   0.42505
                          16        17        18        19        20
                        (B1)--V   (B2)--V   (B2)--V   (A1)--V   (B1)--V
     Eigenvalues --     1.64754   1.90693   2.34482   2.39243   3.11400
   1 1   O  1S          0.00000   0.00000   0.00000   0.15202   0.00000
   2        2S          0.00000   0.00000   0.00000   0.75509   0.00000
   3        3S          0.00000   0.00000   0.00000   0.66201   0.00000
   4        4PX        -0.01333   0.00000   0.00000   0.00000   0.01327
   5        4PY         0.00000   0.00393   0.74730   0.00000   0.00000
   6        4PZ         0.00000   0.00000   0.00000  -0.60589   0.00000
   7        5PX        -0.56628   0.00000   0.00000   0.00000  -0.29922
   8        5PY         0.00000   0.79110   0.10355   0.00000   0.00000
   9        5PZ         0.00000   0.00000   0.00000  -0.19933   0.00000
  10        6D 0        0.00000   0.00000   0.00000  -0.08493   0.00000
  11        6D+1       -0.20582   0.00000   0.00000   0.00000   1.03069
  12        6D-1        0.00000   0.02798   0.16894   0.00000   0.00000
  13        6D+2        0.00000   0.00000   0.00000   0.28073   0.00000
  14        6D-2        0.00000   0.00000   0.00000   0.00000   0.00000
  15 2   H  1S          0.00000  -0.33178  -0.20308  -0.40442   0.00000
  16        2S          0.00000  -0.08569  -0.31788  -0.19350   0.00000
  17        3PX         0.73396   0.00000   0.00000   0.00000   0.41188
  18        3PY         0.00000  -0.45975   0.68531   0.70147   0.00000
  19        3PZ         0.00000  -0.67596  -0.52008  -0.51766   0.00000
  20 3   H  1S          0.00000   0.33178   0.20308  -0.40442   0.00000
  21        2S          0.00000   0.08569   0.31788  -0.19350   0.00000
  22        3PX         0.73396   0.00000   0.00000   0.00000   0.41188
  23        3PY         0.00000  -0.45975   0.68531  -0.70147   0.00000
  24        3PZ         0.00000   0.67596   0.52008  -0.51766   0.00000
                          21        22        23        24
                        (A2)--V   (A1)--V   (A1)--V   (B2)--V
     Eigenvalues --     3.15026   3.34461   3.64623   3.99292
   1 1   O  1S          0.00000  -0.00330   0.07583   0.00000
   2        2S          0.00000  -0.09559   0.14054   0.00000
   3        3S          0.00000   0.44010   1.92000   0.00000
   4        4PX         0.00000   0.00000   0.00000   0.00000
   5        4PY         0.00000   0.00000   0.00000  -0.47368
   6        4PZ         0.00000   0.00181  -0.38833   0.00000
   7        5PX         0.00000   0.00000   0.00000   0.00000
   8        5PY         0.00000   0.00000   0.00000  -1.09100
   9        5PZ         0.00000  -0.49856  -0.93693   0.00000
  10        6D 0        0.00000   1.06125   0.21254   0.00000
  11        6D+1        0.00000   0.00000   0.00000   0.00000
  12        6D-1        0.00000   0.00000   0.00000   1.33798
  13        6D+2        0.00000   0.24269  -1.12558   0.00000
  14        6D-2        1.05246   0.00000   0.00000   0.00000
  15 2   H  1S          0.00000  -0.25526  -1.15737   1.04342
  16        2S          0.00000  -0.04427  -0.23273   0.26458
  17        3PX        -0.37948   0.00000   0.00000   0.00000
  18        3PY         0.00000   0.34428   0.62101  -0.61211
  19        3PZ         0.00000   0.33672  -0.48592   0.52199
  20 3   H  1S          0.00000  -0.25526  -1.15737  -1.04342
  21        2S          0.00000  -0.04427  -0.23273  -0.26458
  22        3PX         0.37948   0.00000   0.00000   0.00000
  23        3PY         0.00000  -0.34428  -0.62101  -0.61211
  24        3PZ         0.00000   0.33672  -0.48592  -0.52199
     Density Matrix:
                           1         2         3         4         5
   1 1   O  1S          2.13388
   2        2S          0.27717   0.69906
   3        3S          0.24882   0.44655   0.39534
   4        4PX         0.00000   0.00000   0.00000   0.80667
   5        4PY        -0.00000  -0.00000  -0.00000  -0.00000   0.50242
   6        4PZ         0.06030   0.11017   0.32553   0.00000  -0.00000
   7        5PX         0.00000   0.00000   0.00000   0.62846  -0.00000
   8        5PY        -0.00000  -0.00000  -0.00000  -0.00000   0.22106
   9        5PZ         0.07452   0.14994   0.24820   0.00000  -0.00000
  10        6D 0       -0.00272  -0.00480  -0.01124   0.00000  -0.00000
  11        6D+1        0.00000   0.00000   0.00000  -0.02360   0.00000
  12        6D-1        0.00000   0.00000   0.00000   0.00000  -0.02422
  13        6D+2        0.00003  -0.00426  -0.00098  -0.00000  -0.00000
  14        6D-2       -0.00000   0.00000  -0.00000   0.00000  -0.00000
  15 2   H  1S          0.07261   0.13537  -0.03345   0.00000   0.32404
  16        2S         -0.00995  -0.01170  -0.03364   0.00000   0.09572
  17        3PX         0.00000   0.00000   0.00000   0.03670  -0.00000
  18        3PY        -0.01630  -0.02342   0.00180  -0.00000  -0.01715
  19        3PZ         0.01471   0.02202   0.01557   0.00000   0.02858
  20 3   H  1S          0.07261   0.13537  -0.03345   0.00000  -0.32404
  21        2S         -0.00995  -0.01170  -0.03364   0.00000  -0.09572
  22        3PX         0.00000   0.00000   0.00000   0.03670  -0.00000
  23        3PY         0.01630   0.02342  -0.00180  -0.00000  -0.01715
  24        3PZ         0.01471   0.02202   0.01557   0.00000  -0.02858
                           6         7         8         9        10
   6        4PZ         0.62007
   7        5PX         0.00000   0.48962
   8        5PY        -0.00000  -0.00000   0.09726
   9        5PZ         0.38328   0.00000  -0.00000   0.24678
  10        6D 0       -0.02005   0.00000  -0.00000  -0.01255   0.00065
  11        6D+1        0.00000  -0.01839   0.00000   0.00000  -0.00000
  12        6D-1        0.00000   0.00000  -0.01066   0.00000   0.00000
  13        6D+2        0.00332  -0.00000  -0.00000   0.00147  -0.00010
  14        6D-2       -0.00000   0.00000  -0.00000  -0.00000   0.00000
  15 2   H  1S         -0.26396   0.00000   0.14257  -0.14114   0.00820
  16        2S         -0.06338   0.00000   0.04211  -0.03924   0.00205
  17        3PX         0.00000   0.02859  -0.00000   0.00000   0.00000
  18        3PY         0.03650  -0.00000  -0.00755   0.01894  -0.00113
  19        3PZ         0.00657   0.00000   0.01258   0.00659  -0.00025
  20 3   H  1S         -0.26396   0.00000  -0.14257  -0.14114   0.00820
  21        2S         -0.06338   0.00000  -0.04211  -0.03924   0.00205
  22        3PX         0.00000   0.02859  -0.00000   0.00000   0.00000
  23        3PY        -0.03650  -0.00000  -0.00755  -0.01894   0.00113
  24        3PZ         0.00657   0.00000  -0.01258   0.00659  -0.00025
                          11        12        13        14        15
  11        6D+1        0.00069
  12        6D-1       -0.00000   0.00117
  13        6D+2       -0.00000   0.00000   0.00005
  14        6D-2       -0.00000  -0.00000  -0.00000   0.00000
  15 2   H  1S         -0.00000  -0.01562  -0.00270   0.00000   0.37061
  16        2S         -0.00000  -0.00461  -0.00034   0.00000   0.08855
  17        3PX        -0.00107   0.00000   0.00000   0.00000   0.00000
  18        3PY         0.00000   0.00083   0.00040  -0.00000  -0.03473
  19        3PZ         0.00000  -0.00138  -0.00011  -0.00000   0.02131
  20 3   H  1S         -0.00000   0.01562  -0.00270   0.00000  -0.04738
  21        2S         -0.00000   0.00461  -0.00034   0.00000  -0.03492
  22        3PX        -0.00107   0.00000   0.00000   0.00000   0.00000
  23        3PY         0.00000   0.00083  -0.00040   0.00000   0.01261
  24        3PZ         0.00000   0.00138  -0.00011  -0.00000  -0.01556
                          16        17        18        19        20
  16        2S          0.02472
  17        3PX         0.00000   0.00167
  18        3PY        -0.00696  -0.00000   0.00408
  19        3PZ         0.00475   0.00000  -0.00153   0.00235
  20 3   H  1S         -0.03492   0.00000  -0.01261  -0.01556   0.37061
  21        2S         -0.01175   0.00000  -0.00043  -0.00614   0.08855
  22        3PX         0.00000   0.00167  -0.00000   0.00000   0.00000
  23        3PY         0.00043  -0.00000  -0.00291  -0.00042   0.03473
  24        3PZ        -0.00614   0.00000   0.00042  -0.00090   0.02131
                          21        22        23        24
  21        2S          0.02472
  22        3PX         0.00000   0.00167
  23        3PY         0.00696  -0.00000   0.00408
  24        3PZ         0.00475   0.00000   0.00153   0.00235
    Full Mulliken population analysis:
                           1         2         3         4         5
   1 1   O  1S          2.13388
   2        2S         -0.09535   0.69906
   3        3S         -0.03928   0.35230   0.39534
   4        4PX         0.00000   0.00000   0.00000   0.80667
   5        4PY         0.00000   0.00000   0.00000   0.00000   0.50242
   6        4PZ         0.00000   0.00000   0.00000   0.00000   0.00000
   7        5PX         0.00000   0.00000   0.00000   0.31558   0.00000
   8        5PY         0.00000   0.00000   0.00000   0.00000   0.11100
   9        5PZ         0.00000   0.00000   0.00000   0.00000   0.00000
  10        6D 0       -0.00000   0.00000   0.00000   0.00000   0.00000
  11        6D+1        0.00000  -0.00000  -0.00000   0.00000   0.00000
  12        6D-1        0.00000  -0.00000  -0.00000   0.00000   0.00000
  13        6D+2       -0.00000  -0.00000  -0.00000   0.00000   0.00000
  14        6D-2       -0.00000  -0.00000   0.00000   0.00000   0.00000
  15 2   H  1S         -0.00341   0.04395  -0.01696   0.00000   0.07046
  16        2S          0.00062  -0.00456  -0.02314   0.00000   0.00793
  17        3PX         0.00000   0.00000   0.00000   0.00658   0.00000
  18        3PY        -0.00113   0.00788  -0.00046   0.00000   0.00285
  19        3PZ        -0.00082   0.00592   0.00320   0.00000   0.00790
  20 3   H  1S         -0.00341   0.04395  -0.01696   0.00000   0.07046
  21        2S          0.00062  -0.00456  -0.02314   0.00000   0.00793
  22        3PX         0.00000   0.00000   0.00000   0.00658   0.00000
  23        3PY        -0.00113   0.00788  -0.00046   0.00000   0.00285
  24        3PZ        -0.00082   0.00592   0.00320   0.00000   0.00790
                           6         7         8         9        10
   6        4PZ         0.62007
   7        5PX         0.00000   0.48962
   8        5PY         0.00000   0.00000   0.09726
   9        5PZ         0.19246   0.00000   0.00000   0.24678
  10        6D 0        0.00000   0.00000   0.00000   0.00000   0.00065
  11        6D+1        0.00000   0.00000   0.00000   0.00000   0.00000
  12        6D-1        0.00000   0.00000   0.00000   0.00000   0.00000
  13        6D+2        0.00000   0.00000   0.00000   0.00000   0.00000
  14        6D-2        0.00000   0.00000   0.00000   0.00000   0.00000
  15 2   H  1S          0.04589   0.00000   0.06920   0.05478   0.00016
  16        2S          0.00420   0.00000   0.01289   0.00961   0.00000
  17        3PX         0.00000   0.01031   0.00000   0.00000   0.00000
  18        3PY         0.01009   0.00000  -0.00046   0.00455   0.00020
  19        3PZ        -0.00027   0.00000   0.00302   0.00111   0.00005
  20 3   H  1S          0.04589   0.00000   0.06920   0.05478   0.00016
  21        2S          0.00420   0.00000   0.01289   0.00961   0.00000
  22        3PX         0.00000   0.01031   0.00000   0.00000  -0.00000
  23        3PY         0.01009   0.00000  -0.00046   0.00455   0.00020
  24        3PZ        -0.00027   0.00000   0.00302   0.00111   0.00005
                          11        12        13        14        15
  11        6D+1        0.00069
  12        6D-1        0.00000   0.00117
  13        6D+2        0.00000   0.00000   0.00005
  14        6D-2        0.00000   0.00000   0.00000   0.00000
  15 2   H  1S          0.00000   0.00298   0.00032  -0.00000   0.37061
  16        2S          0.00000   0.00009   0.00000  -0.00000   0.06064
  17        3PX         0.00021   0.00000   0.00000   0.00000   0.00000
  18        3PY         0.00000   0.00015  -0.00000  -0.00000   0.00000
  19        3PZ         0.00000   0.00008   0.00002   0.00000   0.00000
  20 3   H  1S         -0.00000   0.00298   0.00032  -0.00000  -0.00585
  21        2S         -0.00000   0.00009   0.00000  -0.00000  -0.01083
  22        3PX         0.00021   0.00000  -0.00000  -0.00000   0.00000
  23        3PY         0.00000   0.00015  -0.00000   0.00000   0.00182
  24        3PZ        -0.00000   0.00008   0.00002   0.00000   0.00000
                          16        17        18        19        20
  16        2S          0.02472
  17        3PX         0.00000   0.00167
  18        3PY         0.00000   0.00000   0.00408
  19        3PZ         0.00000   0.00000   0.00000   0.00235
  20 3   H  1S         -0.01083   0.00000   0.00182   0.00000   0.37061
  21        2S         -0.00717   0.00000   0.00007   0.00000   0.06064
  22        3PX         0.00000   0.00007   0.00000   0.00000   0.00000
  23        3PY         0.00007   0.00000   0.00062   0.00000   0.00000
  24        3PZ         0.00000   0.00000  -0.00000  -0.00004   0.00000
                          21        22        23        24
  21        2S          0.02472
  22        3PX         0.00000   0.00167
  23        3PY         0.00000   0.00000   0.00408
  24        3PZ         0.00000   0.00000   0.00000   0.00235
     Gross orbital populations:
                           1
   1 1   O  1S          1.98978
   2        2S          1.06240
   3        3S          0.63362
   4        4PX         1.13541
   5        4PY         0.79171
   6        4PZ         0.93234
   7        5PX         0.82582
   8        5PY         0.37759
   9        5PZ         0.57932
  10        6D 0        0.00147
  11        6D+1        0.00110
  12        6D-1        0.00778
  13        6D+2        0.00074
  14        6D-2        0.00000
  15 2   H  1S          0.68376
  16        2S          0.07508
  17        3PX         0.01883
  18        3PY         0.03027
  19        3PZ         0.02253
  20 3   H  1S          0.68376
  21        2S          0.07508
  22        3PX         0.01883
  23        3PY         0.03027
  24        3PZ         0.02253
          Condensed to atoms (all electrons):
               1          2          3
     1  O    7.667079   0.335997   0.335997
     2  H    0.335997   0.524707  -0.030241
     3  H    0.335997  -0.030241   0.524707
 Mulliken charges:
               1
     1  O   -0.339074
     2  H    0.169537
     3  H    0.169537
 Sum of Mulliken charges =   0.00000
 Mulliken charges with hydrogens summed into heavy atoms:
               1
     1  O    0.000000
 APT charges:
               1
     1  O   -0.537580
     2  H    0.268790
     3  H    0.268790
 Sum of APT charges =   0.00000
 APT charges with hydrogens summed into heavy atoms:
               1
     1  O    0.000000
 Electronic spatial extent (au):  <R**2>=             18.8761
 Charge=             -0.0000 electrons
 Dipole moment (field-independent basis, Debye):
    X=             -0.0000    Y=              0.0000    Z=             -2.1739  Tot=              2.1739
 Quadrupole moment (field-independent basis, Debye-Ang):
   XX=             -7.0239   YY=             -4.2419   ZZ=             -5.8837
   XY=              0.0000   XZ=              0.0000   YZ=             -0.0000
 Traceless Quadrupole moment (field-independent basis, Debye-Ang):
   XX=             -1.3074   YY=              1.4746   ZZ=             -0.1672
   XY=              0.0000   XZ=              0.0000   YZ=             -0.0000
 Octapole moment (field-independent basis, Debye-Ang**2):
  XXX=              0.0000  YYY=             -0.0000  ZZZ=             -1.2835  XYY=             -0.0000
  XXY=             -0.0000  XXZ=             -0.3307  XZZ=              0.0000  YZZ=              0.0000
  YYZ=             -1.2575  XYZ=             -0.0000
 Hexadecapole moment (field-independent basis, Debye-Ang**3):
 XXXX=             -4.8489 YYYY=             -5.8098 ZZZZ=             -6.0333 XXXY=             -0.0000
 XXXZ=             -0.0000 YYYX=             -0.0000 YYYZ=              0.0000 ZZZX=             -0.0000
 ZZZY=              0.0000 XXYY=             -2.0430 XXZZ=             -1.8733 YYZZ=             -1.6047
 XXYZ=              0.0000 YYXZ=              0.0000 ZZXY=             -0.0000
 N-N= 9.129695399308D+00 E-N=-1.988167548866D+02  KE= 7.581340555200D+01
 Symmetry A1   KE= 6.767622237105D+01
 Symmetry A2   KE= 6.544263186846D-35
 Symmetry B1   KE= 4.602569330714D+00
 Symmetry B2   KE= 3.534613850236D+00

 Atomic contributions to Alpha molecular orbitals:
 Alpha occ 1 OE=-19.717 is O1-s=1.00
 Alpha occ 2 OE=-1.120 is O1-s=0.72 H3-s=0.12 H2-s=0.12
 Alpha occ 3 OE=-0.588 is O1-p=0.58 H3-s=0.20 H2-s=0.20
 Alpha occ 4 OE=-0.455 is O1-p=0.74 O1-s=0.12
 Alpha occ 5 OE=-0.380 is O1-p=0.98
 Alpha vir 6 OE=0.104 is H3-s=0.55 H2-s=0.55 O1-s=-0.14
 Alpha vir 7 OE=0.185 is H3-s=0.47 H2-s=0.47
 Alpha vir 8 OE=0.649 is H3-s=0.37 H2-s=0.37 O1-p=0.15
 Alpha vir 9 OE=0.728 is H2-s=0.32 H3-s=0.32 O1-p=0.11
 Alpha vir 10 OE=1.022 is O1-p=0.85 O1-s=0.10
 Alpha vir 11 OE=1.032 is O1-p=1.00
 Alpha vir 12 OE=1.113 is O1-p=1.09
 Alpha vir 13 OE=1.199 is O1-s=0.91 H2-p=0.10 H3-p=0.10
 Alpha vir 14 OE=1.456 is H3-p=0.46 H2-p=0.46
 Alpha vir 15 OE=1.494 is H3-p=0.30 H2-p=0.30 O1-s=0.18 O1-p=0.14 O1-d=0.10
 Alpha vir 16 OE=1.648 is H2-p=0.44 H3-p=0.44 O1-d=0.10
 Alpha vir 17 OE=1.907 is H2-p=0.48 H3-p=0.48
 Alpha vir 18 OE=2.345 is H2-p=0.40 H3-p=0.40
 Alpha vir 19 OE=2.392 is H3-p=0.36 H2-p=0.36 O1-d=0.17
 Alpha vir 20 OE=3.114 is O1-d=0.90
 Alpha vir 21 OE=3.150 is O1-d=0.92
 Alpha vir 22 OE=3.345 is O1-d=0.89
 Alpha vir 23 OE=3.646 is O1-d=0.78
 Alpha vir 24 OE=3.993 is O1-d=0.86
 
 Orbital energies and kinetic energies (alpha):
                                 1                 2
   1         (A1)--O         -19.716821         28.798283
   2         (A1)--O          -1.119949          2.813095
   3         (B2)--O          -0.587840          1.767307
   4         (A1)--O          -0.455281          2.226733
   5         (B1)--O          -0.379620          2.301285
   6         (A1)--V           0.103829          0.842842
   7         (B2)--V           0.184895          0.903093
   8         (B2)--V           0.649484          1.909757
   9         (A1)--V           0.727696          2.493011
  10         (A1)--V           1.021879          3.489987
  11         (B1)--V           1.032314          3.665347
  12         (B2)--V           1.113080          2.963639
  13         (A1)--V           1.198513          3.281913
  14         (A2)--V           1.456428          2.136485
  15         (A1)--V           1.493607          2.366745
  16         (B1)--V           1.647536          2.297571
  17         (B2)--V           1.906933          2.489396
  18         (B2)--V           2.344820          4.142463
  19         (A1)--V           2.392426          4.507854
  20         (B1)--V           3.114003          4.463537
  21         (A2)--V           3.150257          4.531751
  22         (A1)--V           3.344613          4.746265
  23         (A1)--V           3.646234          5.509601
  24         (B2)--V           3.992922          5.879256
 Total kinetic energy from orbitals= 7.581340555200D+01
  Exact polarizability:   3.171   0.000   7.373  -0.000   0.000   5.546
 Approx polarizability:   2.877   0.000   6.947   0.000  -0.000   5.389
 No NMR shielding tensors so no spin-rotation constants.
 Leave Link  601 at Tue Jan  9 19:09:20 2018, MaxMem=  4194304000 cpu:         1.0
 (Enter /home/chemsoft/gaussian/g09e01/g09/l612.exe)
 Running external command "gaunbo6 R"
         input file       "/scr/martin/g09job988/Gau-2491.EIn"
         output file      "/scr/martin/g09job988/Gau-2491.EOu"
         message file     "/scr/martin/g09job988/Gau-2491.EMs"
         fchk file        "/scr/martin/g09job988/Gau-2491.EFC"
         mat. el file     "/scr/martin/g09job988/Gau-2491.EUF"

 Writing Wrt12E file "/scr/martin/g09job988/Gau-2491.EUF"
 Gaussian matrix elements                                         Version   1 NLab= 7 Len12L=8 Len4L=8
 Write GAUSSIAN SCALARS               from file   501 offset           0 to matrix element file.
 Write OVERLAP                        from file   514 offset           0 to matrix element file.
 Write CORE HAMILTONIAN ALPHA         from file   515 offset           0 to matrix element file.
 Write CORE HAMILTONIAN BETA          from file   515 offset         300 to matrix element file.
 Write KINETIC ENERGY                 from file   516 offset           0 to matrix element file.
 Write ORTHOGONAL BASIS               from file   685 offset           0 to matrix element file.
 Write DIPOLE INTEGRALS               from file   518 offset           0 to matrix element file.
 Array DIP VEL INTEGRALS               on  file    572 does not exist.
 Array R X DEL INTEGRALS               on  file    572 does not exist.
 Write ALPHA ORBITAL ENERGIES         from file     0 offset           0 to matrix element file.
 Write ALPHA MO COEFFICIENTS          from file 10524 offset           0 to matrix element file.
 Write ALPHA DENSITY MATRIX           from file     0 offset           0 to matrix element file.
 Write ALPHA SCF DENSITY MATRIX       from file 10528 offset           0 to matrix element file.
 Write ALPHA FOCK MATRIX              from file 10536 offset           0 to matrix element file.
 Write ALPHA MP2 DENSITY              from file     0 offset           0 to matrix element file.
 No 2e integrals to process.
 Perform NBO analysis...

 *********************************** NBO 6.0 ***********************************
             N A T U R A L   A T O M I C   O R B I T A L   A N D
          N A T U R A L   B O N D   O R B I T A L   A N A L Y S I S
 ***************************** development version *****************************
  (c) Copyright 1996-2016 Board of Regents of the University of Wisconsin System
      on behalf of the Theoretical Chemistry Institute.  All rights reserved.

          Cite this program as:

          NBO 6.0.  E. D. Glendening, J. K. Badenhoop, A. E. Reed,
          J. E. Carpenter, J. A. Bohmann, C. M. Morales, C. R. Landis,
          and F. Weinhold (Theoretical Chemistry Institute, University
          of Wisconsin, Madison, WI, 2013); http://nbo6.chem.wisc.edu/

 Filename set to /scr/martin/g09job988/Gau-2491

 Job title:  Water B2PLYP/def2-SVP


 NATURAL POPULATIONS:  Natural atomic orbital occupancies

  NAO Atom No lang   Type(AO)    Occupancy
 ------------------------------------------
   1    O  1  s      Cor( 1s)     1.99998
   2    O  1  s      Val( 2s)     1.75713
   3    O  1  s      Ryd( 3s)     0.00238
   4    O  1  px     Val( 2p)     1.99481
   5    O  1  px     Ryd( 3p)     0.00127
   6    O  1  py     Val( 2p)     1.44333
   7    O  1  py     Ryd( 3p)     0.00273
   8    O  1  pz     Val( 2p)     1.70756
   9    O  1  pz     Ryd( 3p)     0.00052
  10    O  1  dxy    Ryd( 3d)     0.00000
  11    O  1  dxz    Ryd( 3d)     0.00142
  12    O  1  dyz    Ryd( 3d)     0.00313
  13    O  1  dx2y2  Ryd( 3d)     0.00092
  14    O  1  dz2    Ryd( 3d)     0.00172

  15    H  2  s      Val( 1s)     0.53572
  16    H  2  s      Ryd( 2s)     0.00164
  17    H  2  px     Ryd( 2p)     0.00125
  18    H  2  py     Ryd( 2p)     0.00169
  19    H  2  pz     Ryd( 2p)     0.00126

  20    H  3  s      Val( 1s)     0.53572
  21    H  3  s      Ryd( 2s)     0.00164
  22    H  3  px     Ryd( 2p)     0.00125
  23    H  3  py     Ryd( 2p)     0.00169
  24    H  3  pz     Ryd( 2p)     0.00126


 Summary of Natural Population Analysis:

                                     Natural Population
             Natural    ---------------------------------------------
  Atom No    Charge        Core      Valence    Rydberg      Total
 --------------------------------------------------------------------
    O  1   -0.91688      1.99998     6.90282    0.01408     8.91688
    H  2    0.45844      0.00000     0.53572    0.00583     0.54156
    H  3    0.45844      0.00000     0.53572    0.00583     0.54156
 ====================================================================
 * Total *  0.00000      1.99998     7.97427    0.02575    10.00000

                                 Natural Population
 ---------------------------------------------------------
   Core                       1.99998 ( 99.9989% of    2)
   Valence                    7.97427 ( 99.6784% of    8)
   Natural Minimal Basis      9.97425 ( 99.7425% of   10)
   Natural Rydberg Basis      0.02575 (  0.2575% of   10)
 ---------------------------------------------------------

    Atom No         Natural Electron Configuration
 ----------------------------------------------------------------------------
      O  1      [core]2s( 1.76)2p( 5.15)3d( 0.01)
      H  2            1s( 0.54)
      H  3            1s( 0.54)


 NATURAL BOND ORBITAL ANALYSIS:

                            Occupancies       Lewis Structure    Low   High
         Max    Occ     -------------------  -----------------   occ   occ
  Cycle  Ctr   Thresh    Lewis   non-Lewis     CR  BD  nC  LP    (L)   (NL)
 ============================================================================
    1     2     1.90     9.99202   0.00798      1   2   0   2     0      0
    2     2     1.47     9.23995   0.76005      1   1   0   3     0      2
    3     2     1.44     8.91688   1.08312      1   0   0   4     0      2
    4     2     1.90     9.99202   0.00798      1   2   0   2     0      0
 ----------------------------------------------------------------------------

 Structure accepted: No low occupancy Lewis orbitals

 -------------------------------------------------------
   Core                      1.99998 ( 99.999% of   2)
   Valence Lewis             7.99204 ( 99.901% of   8)
  ==================      =============================
   Total Lewis               9.99202 ( 99.920% of  10)
  -----------------------------------------------------
   Valence non-Lewis         0.00018 (  0.002% of  10)
   Rydberg non-Lewis         0.00780 (  0.078% of  10)
  ==================      =============================
   Total non-Lewis           0.00798 (  0.080% of  10)
 -------------------------------------------------------


     (Occupancy)   Bond orbital / Coefficients / Hybrids
 ------------------ Lewis ------------------------------------------------------
   1. (1.99998) CR ( 1) O  1            s(100.00%)
                                         1.0000  0.0000  0.0000  0.0000  0.0000
                                         0.0000  0.0000  0.0000  0.0000  0.0000
                                         0.0000  0.0000  0.0000  0.0000
   2. (1.99750) LP ( 1) O  1            s(  0.00%)p 1.00( 99.93%)d 0.00(  0.07%)
                                         0.0000  0.0000  0.0000  0.9993 -0.0252
                                         0.0000  0.0000  0.0000  0.0000  0.0000
                                        -0.0267  0.0000  0.0000  0.0000
   3. (1.99710) LP ( 2) O  1            s( 54.44%)p 0.84( 45.51%)d 0.00(  0.04%)
                                         0.0000  0.7375 -0.0213  0.0000  0.0000
                                         0.0000  0.0000  0.6745 -0.0149  0.0000
                                         0.0000  0.0000 -0.0053 -0.0199
   4. (1.99872) BD ( 1) O  1- H  2
               ( 73.10%)   0.8550* O  1 s( 22.82%)p 3.38( 77.01%)d 0.01(  0.17%)
                                         0.0000  0.4771  0.0223  0.0000  0.0000
                                         0.7057  0.0307 -0.5208 -0.0049  0.0000
                                         0.0000 -0.0328 -0.0171  0.0177
               ( 26.90%)   0.5186* H  2 s( 99.64%)p 0.00(  0.36%)
                                         0.9982 -0.0009  0.0000 -0.0516  0.0308
   5. (1.99872) BD ( 1) O  1- H  3
               ( 73.10%)   0.8550* O  1 s( 22.82%)p 3.38( 77.01%)d 0.01(  0.17%)
                                         0.0000  0.4771  0.0223  0.0000  0.0000
                                        -0.7057 -0.0307 -0.5208 -0.0049  0.0000
                                         0.0000  0.0328 -0.0171  0.0177
               ( 26.90%)   0.5186* H  3 s( 99.64%)p 0.00(  0.36%)
                                         0.9982 -0.0009  0.0000  0.0516  0.0308
 ---------------- non-Lewis ----------------------------------------------------
   6. (0.00009) BD*( 1) O  1- H  2
               ( 26.90%)   0.5186* O  1 s( 22.82%)p 3.38( 77.01%)d 0.01(  0.17%)
               ( 73.10%)  -0.8550* H  2 s( 99.64%)p 0.00(  0.36%)
   7. (0.00009) BD*( 1) O  1- H  3
               ( 26.90%)   0.5186* O  1 s( 22.82%)p 3.38( 77.01%)d 0.01(  0.17%)
               ( 73.10%)  -0.8550* H  3 s( 99.64%)p 0.00(  0.36%)
   8. (0.00000) RY ( 1) O  1            s(  0.04%)p99.99( 95.77%)d99.99(  4.19%)
   9. (0.00000) RY ( 2) O  1            s( 99.86%)p 0.00(  0.14%)d 0.00(  0.00%)
  10. (0.00000) RY ( 3) O  1            s(  0.00%)p 1.00(100.00%)d 0.00(  0.00%)
  11. (0.00000) RY ( 4) O  1            s(  0.00%)p 1.00(100.00%)d 0.00(  0.00%)
  12. (0.00000) RY ( 5) O  1            s(  0.00%)p 0.00(  0.00%)d 1.00(100.00%)
  13. (0.00000) RY ( 6) O  1            s(  0.00%)p 1.00(  0.07%)d99.99( 99.93%)
  14. (0.00000) RY ( 7) O  1            s(  0.00%)p 1.00(  0.22%)d99.99( 99.78%)
  15. (0.00000) RY ( 8) O  1            s(  0.03%)p99.99(  4.22%)d99.99( 95.75%)
  16. (0.00000) RY ( 9) O  1            s(  0.00%)p 1.00(  0.11%)d99.99( 99.89%)
  17. (0.00168) RY ( 1) H  2            s( 95.34%)p 0.05(  4.66%)
                                         0.0065  0.9764  0.0000 -0.0182 -0.2151
  18. (0.00125) RY ( 2) H  2            s(  0.00%)p 1.00(100.00%)
                                         0.0000  0.0000  1.0000  0.0000  0.0000
  19. (0.00096) RY ( 3) H  2            s(  3.65%)p26.37( 96.35%)
                                         0.0025  0.1911  0.0000  0.5361  0.8222
  20. (0.00000) RY ( 4) H  2            s(  1.37%)p72.03( 98.63%)
  21. (0.00168) RY ( 1) H  3            s( 95.34%)p 0.05(  4.66%)
                                         0.0065  0.9764  0.0000  0.0182 -0.2151
  22. (0.00125) RY ( 2) H  3            s(  0.00%)p 1.00(100.00%)
                                         0.0000  0.0000  1.0000  0.0000  0.0000
  23. (0.00096) RY ( 3) H  3            s(  3.65%)p26.37( 96.35%)
                                         0.0025  0.1911  0.0000 -0.5361  0.8222
  24. (0.00000) RY ( 4) H  3            s(  1.37%)p72.03( 98.63%)


 NHO DIRECTIONALITY AND BOND BENDING (deviation from line of nuclear centers at
                                      the position of maximum hybrid amplitude)

         [Thresholds for printing:  angular deviation  >  1.0 degree]
                                    p- or d-character  > 25.0%
                                    orbital occupancy  >  0.10e

                        Line of Centers        Hybrid 1             Hybrid 2
                        ---------------  -------------------  ------------------
           NBO            Theta   Phi    Theta   Phi    Dev   Theta   Phi    Dev
 ===============================================================================
   2. LP ( 1) O  1          --     --     90.8  180.0   --      --     --    --
   3. LP ( 2) O  1          --     --      0.0    0.0   --      --     --    --
   4. BD ( 1) O  1- H  2  128.6   90.0   127.4   90.0   1.2     --     --    --
   5. BD ( 1) O  1- H  3  128.6  270.0   127.4  270.0   1.2     --     --    --


 NATURAL BOND ORBITALS (Summary):

           NBO                 Occupancy
 ========================================
 Molecular unit  1  (H2O)
 ------ Lewis ---------------------------
    1. CR ( 1) O  1             1.99998
    2. LP ( 1) O  1             1.99750
    3. LP ( 2) O  1             1.99710
    4. BD ( 1) O  1- H  2       1.99872
    5. BD ( 1) O  1- H  3       1.99872
 ------ non-Lewis -----------------------
    6. BD*( 1) O  1- H  2       0.00009
    7. BD*( 1) O  1- H  3       0.00009
    8. RY ( 1) O  1             0.00000
    9. RY ( 2) O  1             0.00000
   10. RY ( 3) O  1             0.00000
   11. RY ( 4) O  1             0.00000
   12. RY ( 5) O  1             0.00000
   13. RY ( 6) O  1             0.00000
   14. RY ( 7) O  1             0.00000
   15. RY ( 8) O  1             0.00000
   16. RY ( 9) O  1             0.00000
   17. RY ( 1) H  2             0.00168
   18. RY ( 2) H  2             0.00125
   19. RY ( 3) H  2             0.00096
   20. RY ( 4) H  2             0.00000
   21. RY ( 1) H  3             0.00168
   22. RY ( 2) H  3             0.00125
   23. RY ( 3) H  3             0.00096
   24. RY ( 4) H  3             0.00000
          -------------------------------
                 Total Lewis    9.99202  ( 99.9202%)
           Valence non-Lewis    0.00018  (  0.0018%)
           Rydberg non-Lewis    0.00780  (  0.0780%)
          -------------------------------
               Total unit  1   10.00000  (100.0000%)
              Charge unit  1    0.00000

 $CHOOSE
   LONE 1 2 END
   BOND S 1 2 S 1 3 END
 $END

 NBO analysis completed in 0.03 CPU seconds (0 wall seconds)
 Maximum scratch memory used by NBO was 146826 words
 Maximum scratch memory used by G09NBO was 11155 words

 Read Unf file /scr/martin/g09job988/Gau-2491.EUF:
 Label Gaussian matrix elements                                         IVers= 1 NLab= 2 Version=ES64L-G09RevE.01
 Title Water B2PLYP/def2-SVP                                           
 NAtoms=     3 NBasis=    24 NBsUse=    24 ICharg=     0 Multip=     1 NE=    10 Len12L=8 Len4L=8
 Label GAUSSIAN SCALARS                                                 NI= 1 NR= 1 NTot=       1 LenBuf=    2000 N=    1000       1       1       1       1
 Label NPA CHARGES                                                      NI= 0 NR= 1 NTot=       3 LenBuf=    4000 N=       3       0       0       0       0
 Recovered energy= -76.2925206903     dipole=      0.000000000000      0.000000000000      0.000000000000
 Leave Link  612 at Tue Jan  9 19:09:20 2018, MaxMem=  4194304000 cpu:         2.0
 (Enter /home/chemsoft/gaussian/g09e01/g09/l701.exe)
 Compute integral second derivatives.
 ... and contract with generalized density number  2.
   4 Symmetry operations used in ECPInt.
 ECPInt:  NShTT=      78 NPrTT=     272 LenC2=      79 LenP2D=     271.
 LDataN:  DoStor=T MaxTD1= 6 Len=  172
 D2PCM: PCM CHGder 2nd derivatives, FixD1E=F FixD2E=F DoIter=F DoCFld=F I1PDM=2
 GePol: Maximum number of non-zero 2nd derivatives   =     258
 Leave Link  701 at Tue Jan  9 19:09:22 2018, MaxMem=  4194304000 cpu:        13.7
 (Enter /home/chemsoft/gaussian/g09e01/g09/l702.exe)
 L702 exits ... SP integral derivatives will be done elsewhere.
 Leave Link  702 at Tue Jan  9 19:09:22 2018, MaxMem=  4194304000 cpu:         0.1
 (Enter /home/chemsoft/gaussian/g09e01/g09/l703.exe)
 Compute integral second derivatives, UseDBF=F ICtDFT=           0.
 Integral derivatives from FoFJK, PRISM(SPDF).
 Calling FoFJK, ICntrl=  10100127 FMM=F ISym2X=1 I1Cent= 0 IOpClX= 0 NMat=1 NMatS=1 NMatT=0.
 FoFJK:  IHMeth= 1 ICntrl=10100127 DoSepK=F KAlg= 0 I1Cent=   0 FoldK=F
 IRaf=         0 NMat=   1 IRICut=       1 DoRegI=T DoRafI=F ISym2E= 1.
 FoFCou: FMM=F IPFlag=           0 FMFlag=      100000 FMFlg1=         800
         NFxFlg=           0 DoJE=F BraDBF=F KetDBF=F FulRan=T
         wScrn=  0.000000 ICntrl=10100127 IOpCl=  0 I1Cent=           0 NGrid=           0
         NMat0=    1 NMatS0=      1 NMatT0=    0 NMatD0=    1 NMtDS0=    0 NMtDT0=    0
 Petite list used in FoFCou.
 Leave Link  703 at Tue Jan  9 19:09:22 2018, MaxMem=  4194304000 cpu:         2.0
 (Enter /home/chemsoft/gaussian/g09e01/g09/l716.exe)
 Dipole        =-3.02118859D-17 3.39788961D-16-8.38408322D-01
 Polarizability= 3.17099625D+00 1.27206847D-11 7.37300997D+00
                -9.84702558D-11 5.37575831D-12 5.54582978D+00
 Full mass-weighted force constant matrix:
 Low frequencies --- -110.4100  -97.9406  -31.5866    0.0008    0.0008    0.0015
 Low frequencies --- 1651.2039 3837.9760 3934.4206
 Diagonal vibrational polarizability:
        0.0000000       0.0827818       0.6956129
 Harmonic frequencies (cm**-1), IR intensities (KM/Mole), Raman scattering
 activities (A**4/AMU), depolarization ratios for plane and unpolarized
 incident light, reduced masses (AMU), force constants (mDyne/A),
 and normal coordinates:
                      1                      2                      3
                     A1                     A1                     B2
 Frequencies --   1651.2039              3837.9760              3934.4203
 Red. masses --      1.0810                 1.0467                 1.0801
 Frc consts  --      1.7365                 9.0843                 9.8506
 IR Inten    --     68.2289                12.1357                47.6171
  Atom  AN      X      Y      Z        X      Y      Z        X      Y      Z
     1   8    -0.00  -0.00  -0.07     0.00   0.00   0.05    -0.00  -0.07   0.00
     2   1     0.00   0.44   0.55     0.00   0.58  -0.40     0.00   0.55  -0.44
     3   1     0.00  -0.44   0.55    -0.00  -0.58  -0.40     0.00   0.55   0.44

 -------------------
 - Thermochemistry -
 -------------------
 Temperature   298.150 Kelvin.  Pressure   1.00000 Atm.
 Atom     1 has atomic number  8 and mass  15.99491
 Atom     2 has atomic number  1 and mass   1.00783
 Atom     3 has atomic number  1 and mass   1.00783
 Molecular mass:    18.01056 amu.
 Principal axes and moments of inertia in atomic units:
                           1         2         3
     Eigenvalues --     2.31918   4.08461   6.40379
           X            0.00000   0.00000   1.00000
           Y            1.00000   0.00000  -0.00000
           Z           -0.00000   1.00000  -0.00000
 This molecule is an asymmetric top.
 Rotational symmetry number  2.
 Rotational temperatures (Kelvin)     37.34673    21.20491    13.52539
 Rotational constants (GHZ):         778.18057   441.83913   281.82383
 Zero-point vibrational energy      56365.6 (Joules/Mol)
                                   13.47171 (Kcal/Mol)
 Vibrational temperatures:   2375.71  5521.98  5660.75
          (Kelvin)
 
 Zero-point correction=                           0.021469 (Hartree/Particle)
 Thermal correction to Energy=                    0.024304
 Thermal correction to Enthalpy=                  0.025248
 Thermal correction to Gibbs Free Energy=         0.003810
 Sum of electronic and zero-point Energies=            -76.271052
 Sum of electronic and thermal Energies=               -76.268217
 Sum of electronic and thermal Enthalpies=             -76.267273
 Sum of electronic and thermal Free Energies=          -76.288710
 
                     E (Thermal)             CV                S
                      KCal/Mol        Cal/Mol-Kelvin    Cal/Mol-Kelvin
 Total                   15.251              6.005             45.119
 Electronic               0.000              0.000              0.000
 Translational            0.889              2.981             34.608
 Rotational               0.889              2.981             10.505
 Vibrational             13.473              0.044              0.006
                       Q            Log10(Q)             Ln(Q)
 Total Bot       0.176747D-01         -1.752648         -4.035621
 Total V=0       0.132487D+09          8.122174         18.701998
 Vib (Bot)       0.133453D-09         -9.874672        -22.737272
 Vib (V=0)       0.100035D+01          0.000150          0.000346
 Electronic      0.100000D+01          0.000000          0.000000
 Translational   0.300432D+07          6.477746         14.915562
 Rotational      0.440837D+02          1.644278          3.786089
 
                                                        Water B2PLYP/def2-SVP
                                                             IR Spectrum
 
     3   3                                                                     1                                                     
     9   8                                                                     6                                                     
     3   3                                                                     5                                                     
     4   8                                                                     1                                                     
 
     X   X                                                                     X                                                     
     X   X                                                                     X                                                     
     X   X                                                                     X                                                     
     X   X                                                                     X                                                     
     X                                                                         X                                                     
     X                                                                         X                                                     
     X                                                                         X                                                     
     X                                                                         X                                                     
     X                                                                         X                                                     
     X                                                                         X                                                     
     X                                                                         X                                                     
     X                                                                         X                                                     
     X                                                                         X                                                     
     X                                                                         X                                                     
                                                                               X                                                     
                                                                               X                                                     
                                                                               X                                                     
                                                                               X                                                     
                                                                               X                                                     
                                                                               X                                                     
 
 ***** Axes restored to original set *****
 -------------------------------------------------------------------
 Center     Atomic                   Forces (Hartrees/Bohr)
 Number     Number              X              Y              Z
 -------------------------------------------------------------------
      1        8           0.000077392   -0.000000000    0.000055203
      2        1          -0.000018475   -0.000000000   -0.000055950
      3        1          -0.000058917    0.000000000    0.000000747
 -------------------------------------------------------------------
 Cartesian Forces:  Max     0.000077392 RMS     0.000042138
 Force constants in Cartesian coordinates: 
                1             2             3             4             5 
      1  0.539060D+00
      2  0.000000D+00 -0.675876D-04
      3 -0.926464D-01  0.000000D+00  0.602861D+00
      4 -0.454694D-01  0.000000D+00 -0.614140D-01  0.487491D-01
      5  0.000000D+00  0.337938D-04  0.000000D+00  0.000000D+00 -0.199822D-03
      6 -0.240031D-03  0.000000D+00 -0.525491D+00  0.997600D-02  0.000000D+00
      7 -0.493591D+00  0.000000D+00  0.154060D+00 -0.327968D-02  0.000000D+00
      8  0.000000D+00  0.337938D-04  0.000000D+00  0.000000D+00  0.166028D-03
      9  0.928865D-01  0.000000D+00 -0.773701D-01  0.514380D-01  0.000000D+00
                6             7             8             9 
      6  0.543130D+00
      7 -0.973597D-02  0.496870D+00
      8  0.000000D+00  0.000000D+00 -0.199822D-03
      9 -0.176388D-01 -0.144324D+00  0.000000D+00  0.950090D-01
 FormGI is forming the generalized inverse of G from B-inverse, IUseBI=4.
 Force constants in internal coordinates: 
                1             2             3 
      1  0.542789D+00
      2 -0.553839D-02  0.542789D+00
      3  0.310696D-01  0.310696D-01  0.163946D+00
 Leave Link  716 at Tue Jan  9 19:09:23 2018, MaxMem=  4194304000 cpu:         1.3
 (Enter /home/chemsoft/gaussian/g09e01/g09/l103.exe)

 GradGradGradGradGradGradGradGradGradGradGradGradGradGradGradGradGradGrad
 Berny optimization.
 Red2BG is reusing G-inverse.
 Internal  Forces:  Max     0.000056880 RMS     0.000049180
 Search for a local minimum.
 Step number   1 out of a maximum of    2
 All quantities printed in internal units (Hartrees-Bohrs-Radians)
 Second derivative matrix not updated -- analytic derivatives used.
 The second derivative matrix:
                          R1        R2        A1
           R1           0.54279
           R2          -0.00554   0.54279
           A1           0.03107   0.03107   0.16395
 ITU=  0
     Eigenvalues ---    0.15884   0.54235   0.54833
 Angle between quadratic step and forces=  32.99 degrees.
 Linear search not attempted -- first point.
 Iteration  1 RMS(Cart)=  0.00011008 RMS(Int)=  0.00000001
 Iteration  2 RMS(Cart)=  0.00000001 RMS(Int)=  0.00000000
 ITry= 1 IFail=0 DXMaxC= 1.23D-04 DCOld= 1.00D+10 DXMaxT= 3.00D-01 DXLimC= 3.00D+00 Rises=F
 ClnCor:  largest displacement from symmetrization is 8.46D-15 for atom     3.
 Variable       Old X    -DE/DX   Delta X   Delta X   Delta X     New X
                                 (Linear)    (Quad)   (Total)
    R1        1.82264  -0.00006   0.00000  -0.00012  -0.00012   1.82253
    R2        1.82264  -0.00006   0.00000  -0.00012  -0.00012   1.82253
    A1        1.79262   0.00003   0.00000   0.00022   0.00022   1.79283
         Item               Value     Threshold  Converged?
 Maximum Force            0.000057     0.000450     YES
 RMS     Force            0.000049     0.000300     YES
 Maximum Displacement     0.000123     0.001800     YES
 RMS     Displacement     0.000110     0.001200     YES
 Predicted change in Energy=-9.756108D-09
 Optimization completed.
    -- Stationary point found.
                           ----------------------------
                           !   Optimized Parameters   !
                           ! (Angstroms and Degrees)  !
 --------------------------                            --------------------------
 ! Name  Definition              Value          Derivative Info.                !
 --------------------------------------------------------------------------------
 ! R1    R(1,2)                  0.9645         -DE/DX =   -0.0001              !
 ! R2    R(1,3)                  0.9645         -DE/DX =   -0.0001              !
 ! A1    A(2,1,3)              102.7094         -DE/DX =    0.0                 !
 --------------------------------------------------------------------------------
 GradGradGradGradGradGradGradGradGradGradGradGradGradGradGradGradGradGrad

 Leave Link  103 at Tue Jan  9 19:09:23 2018, MaxMem=  4194304000 cpu:         1.9
 (Enter /home/chemsoft/gaussian/g09e01/g09/l9999.exe)

 Test job not archived.
 1\1\GINC-LENOX07\Freq\RB2PLYP-FC\def2SVP\H2O1\MARTIN\09-Jan-2018\0\\#p
  b2plyp/def2SVP freq geom=check guess=read gfinput gfoldprint iop(6/7=
 3) scrf(pcm,solvent=toluene) pop=full pop=nbo6 pop=allorbitals symmetr
 y=loose\\Water B2PLYP/def2-SVP\\0,1\O,0.0512973485,0.,0.0365900431\H,0
 .1042179552,0.,0.9996386788\H,0.979106987,0.,-0.2269105072\\Version=ES
 64L-G09RevE.01\State=1-A1\HF=-76.2278509\MP2=-76.2925207\RMSD=4.264e-1
 0\RMSF=4.214e-05\ZeroPoint=0.0214685\Thermal=0.0243037\Dipole=0.682561
 2,0.,0.4868662\DipoleDeriv=-0.4169554,0.,0.0612694,0.,-0.7366342,0.,0.
 0612694,0.,-0.459149,0.2754013,0.,-0.0762738,0.,0.3683171,0.,-0.031082
 9,0.,0.1626509,0.1415541,0.,0.0150044,0.,0.3683171,0.,-0.0301865,0.,0.
 2964981\Polar=6.161984,0.,3.1709963,-0.8638164,0.,6.7568557\PG=C02V [C
 2(O1),SGV(H2)]\NImag=0\\0.53905997,0.,-0.00006759,-0.09264644,0.,0.602
 86143,-0.04546942,0.,-0.06141401,0.04874910,0.,0.00003379,0.,0.,-0.000
 19982,-0.00024003,0.,-0.52549128,0.00997600,0.,0.54313012,-0.49359055,
 0.,0.15406045,-0.00327968,0.,-0.00973597,0.49687023,0.,0.00003379,0.,0
 .,0.00016603,0.,0.,-0.00019982,0.09288647,0.,-0.07737015,0.05143800,0.
 ,-0.01763884,-0.14432448,0.,0.09500899\\-0.00007739,0.,-0.00005520,0.0
 0001847,0.,0.00005595,0.00005892,0.,-0.00000075\\\@


 THE SECRET OF SUCCESS IN LIFE IS TO EAT WHAT YOU LIKE, AND LET THE FOOD
 FIGHT IT OUT INSIDE YOU. -- FROM A FORTUNE COOKIE
 Job cpu time:       0 days  0 hours  2 minutes 53.2 seconds.
 File lengths (MBytes):  RWF=     22 Int=      0 D2E=      0 Chk=      2 Scr=      1
 Normal termination of Gaussian 09 at Tue Jan  9 19:09:23 2018.
