 Entering Gaussian System, Link 0=g09
 Input=h2o.bp86.ccpvtz.nbo3.gjf
 Output=h2o.bp86.ccpvtz.nbo3.log
 Initial command:
 /home/chemsoft/gaussian/g09e01/g09/l1.exe "/scr/martin/g09job980/Gau-27218.inp" -scrdir="/scr/martin/g09job980/"
 Entering Link 1 = /home/chemsoft/gaussian/g09e01/g09/l1.exe PID=     27219.
  
 Copyright (c) 1988,1990,1992,1993,1995,1998,2003,2009,2015,
            Gaussian, Inc.  All Rights Reserved.
  
 This is part of the Gaussian(R) 09 program.  It is based on
 the Gaussian(R) 03 system (copyright 2003, Gaussian, Inc.),
 the Gaussian(R) 98 system (copyright 1998, Gaussian, Inc.),
 the Gaussian(R) 94 system (copyright 1995, Gaussian, Inc.),
 the Gaussian 92(TM) system (copyright 1992, Gaussian, Inc.),
 the Gaussian 90(TM) system (copyright 1990, Gaussian, Inc.),
 the Gaussian 88(TM) system (copyright 1988, Gaussian, Inc.),
 the Gaussian 86(TM) system (copyright 1986, Carnegie Mellon
 University), and the Gaussian 82(TM) system (copyright 1983,
 Carnegie Mellon University). Gaussian is a federally registered
 trademark of Gaussian, Inc.
  
 This software contains proprietary and confidential information,
 including trade secrets, belonging to Gaussian, Inc.
  
 This software is provided under written license and may be
 used, copied, transmitted, or stored only in accord with that
 written license.
  
 The following legend is applicable only to US Government
 contracts under FAR:
  
                    RESTRICTED RIGHTS LEGEND
  
 Use, reproduction and disclosure by the US Government is
 subject to restrictions as set forth in subparagraphs (a)
 and (c) of the Commercial Computer Software - Restricted
 Rights clause in FAR 52.227-19.
  
 Gaussian, Inc.
 340 Quinnipiac St., Bldg. 40, Wallingford CT 06492
  
  
 ---------------------------------------------------------------
 Warning -- This program may not be used in any manner that
 competes with the business of Gaussian, Inc. or will provide
 assistance to any competitor of Gaussian, Inc.  The licensee
 of this program is prohibited from giving any competitor of
 Gaussian, Inc. access to this program.  By using this program,
 the user acknowledges that Gaussian, Inc. is engaged in the
 business of creating and licensing software in the field of
 computational chemistry and represents and warrants to the
 licensee that it is not a competitor of Gaussian, Inc. and that
 it will not use this program in any manner prohibited above.
 ---------------------------------------------------------------
  

 Cite this work as:
 Gaussian 09, Revision E.01,
 M. J. Frisch, G. W. Trucks, H. B. Schlegel, G. E. Scuseria, 
 M. A. Robb, J. R. Cheeseman, G. Scalmani, V. Barone, B. Mennucci, 
 G. A. Petersson, H. Nakatsuji, M. Caricato, X. Li, H. P. Hratchian, 
 A. F. Izmaylov, J. Bloino, G. Zheng, J. L. Sonnenberg, M. Hada, 
 M. Ehara, K. Toyota, R. Fukuda, J. Hasegawa, M. Ishida, T. Nakajima, 
 Y. Honda, O. Kitao, H. Nakai, T. Vreven, J. A. Montgomery, Jr., 
 J. E. Peralta, F. Ogliaro, M. Bearpark, J. J. Heyd, E. Brothers, 
 K. N. Kudin, V. N. Staroverov, T. Keith, R. Kobayashi, J. Normand, 
 K. Raghavachari, A. Rendell, J. C. Burant, S. S. Iyengar, J. Tomasi, 
 M. Cossi, N. Rega, J. M. Millam, M. Klene, J. E. Knox, J. B. Cross, 
 V. Bakken, C. Adamo, J. Jaramillo, R. Gomperts, R. E. Stratmann, 
 O. Yazyev, A. J. Austin, R. Cammi, C. Pomelli, J. W. Ochterski, 
 R. L. Martin, K. Morokuma, V. G. Zakrzewski, G. A. Voth, 
 P. Salvador, J. J. Dannenberg, S. Dapprich, A. D. Daniels, 
 O. Farkas, J. B. Foresman, J. V. Ortiz, J. Cioslowski, 
 and D. J. Fox, Gaussian, Inc., Wallingford CT, 2013.
 
 ******************************************
 Gaussian 09:  ES64L-G09RevE.01 30-Nov-2015
                 9-Jan-2018 
 ******************************************
 %chk=h2o.bp86.ccpvtz.nbo3.chk
 %nproc=8
 Will use up to    8 processors via shared memory.
 %mem=32000MB
 ----------------------------
 #p BP86/cc-pVTZ pop=nbo freq
 ----------------------------
 1/10=4,30=1,38=1/1,3;
 2/12=2,17=6,18=5,40=1/2;
 3/5=16,6=1,11=2,16=1,25=1,30=1,71=2,74=404,140=1/1,2,3;
 4//1;
 5/5=2,38=5,98=1/2;
 8/6=4,10=90,11=11/1;
 11/6=1,8=1,9=11,15=111,16=1/1,2,10;
 10/6=1/2;
 6/7=2,8=2,9=2,10=2,18=1,28=1,40=1/1,7;
 7/8=1,10=1,25=1/1,2,3,16;
 1/10=4,30=1/3;
 99//99;
 Leave Link    1 at Tue Jan  9 18:54:30 2018, MaxMem=  4194304000 cpu:         0.3
 (Enter /home/chemsoft/gaussian/g09e01/g09/l101.exe)
 ------------------
 Water BP86/cc-pVTZ
 ------------------
 Symbolic Z-matrix:
 Charge =  0 Multiplicity = 1
 O
 H                    1     1.2 
 H                    1     1.2      2     109. 
 
 NAtoms=      3 NQM=        3 NQMF=       0 NMMI=      0 NMMIF=      0
                NMic=       0 NMicF=      0.
                    Isotopes and Nuclear Properties:
 (Nuclear quadrupole moments (NQMom) in fm**2, nuclear magnetic moments (NMagM)
  in nuclear magnetons)

  Atom         1           2           3
 IAtWgt=          16           1           1
 AtmWgt=  15.9949146   1.0078250   1.0078250
 NucSpn=           0           1           1
 AtZEff=   0.0000000   0.0000000   0.0000000
 NQMom=    0.0000000   0.0000000   0.0000000
 NMagM=    0.0000000   2.7928460   2.7928460
 AtZNuc=   8.0000000   1.0000000   1.0000000
 Leave Link  101 at Tue Jan  9 18:54:30 2018, MaxMem=  4194304000 cpu:         0.3
 (Enter /home/chemsoft/gaussian/g09e01/g09/l103.exe)

 GradGradGradGradGradGradGradGradGradGradGradGradGradGradGradGradGradGrad
 Berny optimization.
 Initialization pass.
 Trust Radius=3.00D-01 FncErr=1.00D-07 GrdErr=1.00D-07
 Number of steps in this run=      2 maximum allowed number of steps=      2.
 GradGradGradGradGradGradGradGradGradGradGradGradGradGradGradGradGradGrad

 Leave Link  103 at Tue Jan  9 18:54:30 2018, MaxMem=  4194304000 cpu:         0.1
 (Enter /home/chemsoft/gaussian/g09e01/g09/l202.exe)
                          Input orientation:                          
 ---------------------------------------------------------------------
 Center     Atomic      Atomic             Coordinates (Angstroms)
 Number     Number       Type             X           Y           Z
 ---------------------------------------------------------------------
      1          8           0        0.000000    0.000000    0.000000
      2          1           0        0.000000    0.000000    1.200000
      3          1           0        1.134622    0.000000   -0.390682
 ---------------------------------------------------------------------
                    Distance matrix (angstroms):
                    1          2          3
     1  O    0.000000
     2  H    1.200000   0.000000
     3  H    1.200000   1.953877   0.000000
 Stoichiometry    H2O
 Framework group  C2V[C2(O),SGV(H2)]
 Deg. of freedom     2
 Full point group                 C2V     NOp   4
 Largest Abelian subgroup         C2V     NOp   4
 Largest concise Abelian subgroup C2      NOp   2
                         Standard orientation:                         
 ---------------------------------------------------------------------
 Center     Atomic      Atomic             Coordinates (Angstroms)
 Number     Number       Type             X           Y           Z
 ---------------------------------------------------------------------
      1          8           0        0.000000    0.000000    0.139369
      2          1           0       -0.000000    0.976939   -0.557475
      3          1           0       -0.000000   -0.976939   -0.557475
 ---------------------------------------------------------------------
 Rotational constants (GHZ):    581.4025008    262.7044919    180.9451289
 Leave Link  202 at Tue Jan  9 18:54:31 2018, MaxMem=  4194304000 cpu:         1.0
 (Enter /home/chemsoft/gaussian/g09e01/g09/l301.exe)
 Standard basis: CC-pVTZ (5D, 7F)
 Ernie: Thresh=  0.10000D-02 Tol=  0.10000D-05 Strict=F.
 Ernie:  3 primitive shells out of 42 were deleted.
 There are    27 symmetry adapted cartesian basis functions of A1  symmetry.
 There are     7 symmetry adapted cartesian basis functions of A2  symmetry.
 There are    12 symmetry adapted cartesian basis functions of B1  symmetry.
 There are    19 symmetry adapted cartesian basis functions of B2  symmetry.
 There are    23 symmetry adapted basis functions of A1  symmetry.
 There are     7 symmetry adapted basis functions of A2  symmetry.
 There are    11 symmetry adapted basis functions of B1  symmetry.
 There are    17 symmetry adapted basis functions of B2  symmetry.
    58 basis functions,    86 primitive gaussians,    65 cartesian basis functions
     5 alpha electrons        5 beta electrons
       nuclear repulsion energy         7.3265305337 Hartrees.
 IExCor=  404 DFT=T Ex=B Corr=P86 ExCW=0 ScaHFX=  0.000000
 ScaDFX=  1.000000  1.000000  1.000000  1.000000 ScalE2=  1.000000  1.000000
 IRadAn=      0 IRanWt=     -1 IRanGd=            0 ICorTp=0 IEmpDi=  4
 NAtoms=    3 NActive=    3 NUniq=    2 SFac= 2.25D+00 NAtFMM=   60 NAOKFM=F Big=F
 Integral buffers will be    131072 words long.
 Raffenetti 2 integral format.
 Two-electron integral symmetry is turned on.
 Leave Link  301 at Tue Jan  9 18:54:31 2018, MaxMem=  4194304000 cpu:         0.5
 (Enter /home/chemsoft/gaussian/g09e01/g09/l302.exe)
 NPDir=0 NMtPBC=     1 NCelOv=     1 NCel=       1 NClECP=     1 NCelD=      1
         NCelK=      1 NCelE2=     1 NClLst=     1 CellRange=     0.0.
 One-electron integrals computed using PRISM.
 One-electron integral symmetry used in STVInt
 NBasis=    58 RedAO= T EigKep=  8.87D-03  NBF=    23     7    11    17
 NBsUse=    58 1.00D-06 EigRej= -1.00D+00 NBFU=    23     7    11    17
 Precomputing XC quadrature grid using
 IXCGrd= 4 IRadAn=           0 IRanWt=          -1 IRanGd=           0 AccXCQ= 0.00D+00.
 Generated NRdTot=       0 NPtTot=           0 NUsed=           0 NTot=          32
 NSgBfM=    65    65    65    65    65 MxSgAt=     3 MxSgA2=     3.
 Leave Link  302 at Tue Jan  9 18:54:31 2018, MaxMem=  4194304000 cpu:         1.4
 (Enter /home/chemsoft/gaussian/g09e01/g09/l303.exe)
 DipDrv:  MaxL=1.
 Leave Link  303 at Tue Jan  9 18:54:31 2018, MaxMem=  4194304000 cpu:         0.1
 (Enter /home/chemsoft/gaussian/g09e01/g09/l401.exe)
 ExpMin= 1.03D-01 ExpMax= 1.53D+04 ExpMxC= 5.22D+02 IAcc=1 IRadAn=         1 AccDes= 0.00D+00
 Harris functional with IExCor=  404 and IRadAn=       1 diagonalized for initial guess.
 HarFok:  IExCor=  404 AccDes= 0.00D+00 IRadAn=         1 IDoV= 1 UseB2=F ITyADJ=14
 ICtDFT=  3500011 ScaDFX=  1.000000  1.000000  1.000000  1.000000
 FoFCou: FMM=F IPFlag=           0 FMFlag=      100000 FMFlg1=           0
         NFxFlg=           0 DoJE=T BraDBF=F KetDBF=T FulRan=T
         wScrn=  0.000000 ICntrl=     500 IOpCl=  0 I1Cent=   200000004 NGrid=           0
         NMat0=    1 NMatS0=      1 NMatT0=    0 NMatD0=    1 NMtDS0=    0 NMtDT0=    0
 Petite list used in FoFCou.
 Harris En= -76.4369569145457    
 JPrj=0 DoOrth=F DoCkMO=F.
 Initial guess orbital symmetries:
       Occupied  (A1) (A1) (B2) (A1) (B1)
       Virtual   (A1) (B2) (A1) (B2) (A1) (B1) (B2) (A2) (A1) (B1)
                 (B2) (A1) (A1) (B2) (B1) (A2) (A1) (A1) (B2) (B2)
                 (A1) (B1) (B2) (A1) (A2) (B2) (B1) (A1) (B2) (A2)
                 (A1) (B1) (A1) (A2) (B2) (B1) (B2) (A1) (A1) (B2)
                 (B1) (A1) (B1) (A2) (B2) (A1) (B1) (A2) (A1) (B2)
                 (A1) (B2) (A1)
 The electronic state of the initial guess is 1-A1.
 Leave Link  401 at Tue Jan  9 18:54:31 2018, MaxMem=  4194304000 cpu:         1.3
 (Enter /home/chemsoft/gaussian/g09e01/g09/l502.exe)
 Closed shell SCF:
 Using DIIS extrapolation, IDIIS=  1040.
 Integral symmetry usage will be decided dynamically.
 Keep J ints in memory in symmetry-blocked form, NReq=3462563.
 IVT=       32357 IEndB=       32357 NGot=  4194304000 MDV=  4193889764
 LenX=  4193889764 LenY=  4193885098
 Requested convergence on RMS density matrix=1.00D-08 within 128 cycles.
 Requested convergence on MAX density matrix=1.00D-06.
 Requested convergence on             energy=1.00D-06.
 No special actions if energy rises.
 FoFCou: FMM=F IPFlag=           0 FMFlag=           0 FMFlg1=           0
         NFxFlg=           0 DoJE=F BraDBF=F KetDBF=F FulRan=T
         wScrn=  0.000000 ICntrl=     600 IOpCl=  0 I1Cent=           0 NGrid=           0
         NMat0=    1 NMatS0=   1711 NMatT0=    0 NMatD0=    1 NMtDS0=    0 NMtDT0=    0
 Petite list used in FoFCou.
 Integral accuracy reduced to 1.0D-05 until final iterations.

 Cycle   1  Pass 0  IDiag  1:
 E= -76.3209297360202    
 DIIS: error= 7.64D-02 at cycle   1 NSaved=   1.
 NSaved= 1 IEnMin= 1 EnMin= -76.3209297360202     IErMin= 1 ErrMin= 7.64D-02
 ErrMax= 7.64D-02  0.00D+00 EMaxC= 1.00D-01 BMatC= 9.47D-02 BMatP= 9.47D-02
 IDIUse=3 WtCom= 2.36D-01 WtEn= 7.64D-01
 Coeff-Com:  0.100D+01
 Coeff-En:   0.100D+01
 Coeff:      0.100D+01
 Gap=     0.025 Goal=   None    Shift=    0.000
 GapD=    0.025 DampG=0.250 DampE=0.500 DampFc=0.2500 IDamp=-1.
 Damping current iteration by 2.50D-01
 RMSDP=9.43D-03 MaxDP=1.52D-01              OVMax= 4.16D-01

 Cycle   2  Pass 0  IDiag  1:
 E= -76.3447111290247     Delta-E=       -0.023781393005 Rises=F Damp=T
 DIIS: error= 7.75D-03 at cycle   2 NSaved=   2.
 NSaved= 2 IEnMin= 2 EnMin= -76.3447111290247     IErMin= 2 ErrMin= 7.75D-03
 ErrMax= 7.75D-03  0.00D+00 EMaxC= 1.00D-01 BMatC= 2.25D-03 BMatP= 9.47D-02
 IDIUse=3 WtCom= 9.23D-01 WtEn= 7.75D-02
 Coeff-Com: -0.746D-01 0.107D+01
 Coeff-En:   0.253D+00 0.747D+00
 Coeff:     -0.493D-01 0.105D+01
 Gap=     0.151 Goal=   None    Shift=    0.000
 RMSDP=9.56D-04 MaxDP=1.51D-02 DE=-2.38D-02 OVMax= 3.17D-01

 Cycle   3  Pass 0  IDiag  1:
 E= -76.4002479664848     Delta-E=       -0.055536837460 Rises=F Damp=F
 DIIS: error= 4.59D-03 at cycle   3 NSaved=   3.
 NSaved= 3 IEnMin= 3 EnMin= -76.4002479664848     IErMin= 3 ErrMin= 4.59D-03
 ErrMax= 4.59D-03  0.00D+00 EMaxC= 1.00D-01 BMatC= 4.75D-04 BMatP= 2.25D-03
 IDIUse=3 WtCom= 9.54D-01 WtEn= 4.59D-02
 Coeff-Com:  0.659D-01-0.983D-02 0.944D+00
 Coeff-En:   0.000D+00 0.000D+00 0.100D+01
 Coeff:      0.629D-01-0.938D-02 0.947D+00
 Gap=     0.183 Goal=   None    Shift=    0.000
 RMSDP=1.73D-04 MaxDP=2.59D-03 DE=-5.55D-02 OVMax= 6.63D-03

 Cycle   4  Pass 0  IDiag  1:
 E= -76.4005877958500     Delta-E=       -0.000339829365 Rises=F Damp=F
 DIIS: error= 4.88D-04 at cycle   4 NSaved=   4.
 NSaved= 4 IEnMin= 4 EnMin= -76.4005877958500     IErMin= 4 ErrMin= 4.88D-04
 ErrMax= 4.88D-04  0.00D+00 EMaxC= 1.00D-01 BMatC= 6.19D-06 BMatP= 4.75D-04
 IDIUse=3 WtCom= 9.95D-01 WtEn= 4.88D-03
 Coeff-Com:  0.219D-01-0.284D-01 0.240D+00 0.767D+00
 Coeff-En:   0.000D+00 0.000D+00 0.000D+00 0.100D+01
 Coeff:      0.218D-01-0.282D-01 0.238D+00 0.768D+00
 Gap=     0.182 Goal=   None    Shift=    0.000
 RMSDP=1.97D-05 MaxDP=3.06D-04 DE=-3.40D-04 OVMax= 6.26D-04

 Cycle   5  Pass 0  IDiag  1:
 E= -76.4005917288127     Delta-E=       -0.000003932963 Rises=F Damp=F
 DIIS: error= 2.06D-04 at cycle   5 NSaved=   5.
 NSaved= 5 IEnMin= 5 EnMin= -76.4005917288127     IErMin= 5 ErrMin= 2.06D-04
 ErrMax= 2.06D-04  0.00D+00 EMaxC= 1.00D-01 BMatC= 8.57D-07 BMatP= 6.19D-06
 IDIUse=3 WtCom= 9.98D-01 WtEn= 2.06D-03
 Coeff-Com:  0.601D-02-0.520D-02 0.385D-01 0.179D+00 0.782D+00
 Coeff-En:   0.000D+00 0.000D+00 0.000D+00 0.000D+00 0.100D+01
 Coeff:      0.600D-02-0.519D-02 0.384D-01 0.179D+00 0.782D+00
 Gap=     0.183 Goal=   None    Shift=    0.000
 RMSDP=7.65D-06 MaxDP=1.17D-04 DE=-3.93D-06 OVMax= 3.40D-04

 Initial convergence to 1.0D-05 achieved.  Increase integral accuracy.
 Cycle   6  Pass 1  IDiag  1:
 E= -76.4006006864701     Delta-E=       -0.000008957657 Rises=F Damp=F
 DIIS: error= 2.58D-05 at cycle   1 NSaved=   1.
 NSaved= 1 IEnMin= 1 EnMin= -76.4006006864701     IErMin= 1 ErrMin= 2.58D-05
 ErrMax= 2.58D-05  0.00D+00 EMaxC= 1.00D-01 BMatC= 1.48D-08 BMatP= 1.48D-08
 IDIUse=1 WtCom= 1.00D+00 WtEn= 0.00D+00
 Coeff-Com:  0.100D+01
 Coeff:      0.100D+01
 Gap=     0.183 Goal=   None    Shift=    0.000
 RMSDP=7.65D-06 MaxDP=1.17D-04 DE=-8.96D-06 OVMax= 1.30D-04

 Cycle   7  Pass 1  IDiag  1:
 E= -76.4006006371817     Delta-E=        0.000000049288 Rises=F Damp=F
 DIIS: error= 6.74D-05 at cycle   2 NSaved=   2.
 NSaved= 2 IEnMin= 1 EnMin= -76.4006006864701     IErMin= 1 ErrMin= 2.58D-05
 ErrMax= 6.74D-05  0.00D+00 EMaxC= 1.00D-01 BMatC= 8.01D-08 BMatP= 1.48D-08
 IDIUse=1 WtCom= 1.00D+00 WtEn= 0.00D+00
 Coeff-Com:  0.715D+00 0.285D+00
 Coeff:      0.715D+00 0.285D+00
 Gap=     0.183 Goal=   None    Shift=    0.000
 RMSDP=2.14D-06 MaxDP=3.13D-05 DE= 4.93D-08 OVMax= 9.67D-05

 Cycle   8  Pass 1  IDiag  1:
 E= -76.4006006968090     Delta-E=       -0.000000059627 Rises=F Damp=F
 DIIS: error= 2.94D-06 at cycle   3 NSaved=   3.
 NSaved= 3 IEnMin= 3 EnMin= -76.4006006968090     IErMin= 3 ErrMin= 2.94D-06
 ErrMax= 2.94D-06  0.00D+00 EMaxC= 1.00D-01 BMatC= 1.90D-10 BMatP= 1.48D-08
 IDIUse=1 WtCom= 1.00D+00 WtEn= 0.00D+00
 Coeff-Com:  0.326D-01 0.510D-01 0.916D+00
 Coeff:      0.326D-01 0.510D-01 0.916D+00
 Gap=     0.183 Goal=   None    Shift=    0.000
 RMSDP=8.81D-08 MaxDP=1.64D-06 DE=-5.96D-08 OVMax= 3.25D-06

 Cycle   9  Pass 1  IDiag  1:
 E= -76.4006006969241     Delta-E=       -0.000000000115 Rises=F Damp=F
 DIIS: error= 7.98D-07 at cycle   4 NSaved=   4.
 NSaved= 4 IEnMin= 4 EnMin= -76.4006006969241     IErMin= 4 ErrMin= 7.98D-07
 ErrMax= 7.98D-07  0.00D+00 EMaxC= 1.00D-01 BMatC= 1.01D-11 BMatP= 1.90D-10
 IDIUse=1 WtCom= 1.00D+00 WtEn= 0.00D+00
 Coeff-Com: -0.311D-02 0.142D-01 0.296D+00 0.693D+00
 Coeff:     -0.311D-02 0.142D-01 0.296D+00 0.693D+00
 Gap=     0.183 Goal=   None    Shift=    0.000
 RMSDP=2.78D-08 MaxDP=3.16D-07 DE=-1.15D-10 OVMax= 8.44D-07

 Cycle  10  Pass 1  IDiag  1:
 E= -76.4006006969316     Delta-E=       -0.000000000007 Rises=F Damp=F
 DIIS: error= 6.78D-08 at cycle   5 NSaved=   5.
 NSaved= 5 IEnMin= 5 EnMin= -76.4006006969316     IErMin= 5 ErrMin= 6.78D-08
 ErrMax= 6.78D-08  0.00D+00 EMaxC= 1.00D-01 BMatC= 8.42D-14 BMatP= 1.01D-11
 IDIUse=1 WtCom= 1.00D+00 WtEn= 0.00D+00
 Coeff-Com: -0.489D-03 0.210D-02 0.257D-01 0.891D-01 0.884D+00
 Coeff:     -0.489D-03 0.210D-02 0.257D-01 0.891D-01 0.884D+00
 Gap=     0.183 Goal=   None    Shift=    0.000
 RMSDP=2.35D-09 MaxDP=4.88D-08 DE=-7.46D-12 OVMax= 7.12D-08

 SCF Done:  E(RB-P86) =  -76.4006006969     A.U. after   10 cycles
            NFock= 10  Conv=0.24D-08     -V/T= 2.0119
 KE= 7.550366507241D+01 PE=-1.951815159273D+02 EE= 3.595071962418D+01
 Leave Link  502 at Tue Jan  9 18:54:34 2018, MaxMem=  4194304000 cpu:        20.2
 (Enter /home/chemsoft/gaussian/g09e01/g09/l801.exe)
 Range of M.O.s used for correlation:     1    58
 NBasis=    58 NAE=     5 NBE=     5 NFC=     0 NFV=     0
 NROrb=     58 NOA=     5 NOB=     5 NVA=    53 NVB=    53
 Leave Link  801 at Tue Jan  9 18:54:34 2018, MaxMem=  4194304000 cpu:         0.1
 (Enter /home/chemsoft/gaussian/g09e01/g09/l1101.exe)
 Using compressed storage, NAtomX=     3.
 Will process      4 centers per pass.
 Leave Link 1101 at Tue Jan  9 18:54:35 2018, MaxMem=  4194304000 cpu:         1.6
 (Enter /home/chemsoft/gaussian/g09e01/g09/l1102.exe)
 Symmetrizing basis deriv contribution to polar:
 IMax=3 JMax=2 DiffMx= 0.00D+00
 Leave Link 1102 at Tue Jan  9 18:54:35 2018, MaxMem=  4194304000 cpu:         0.4
 (Enter /home/chemsoft/gaussian/g09e01/g09/l1110.exe)
 Forming Gx(P) for the SCF density, NAtomX=     3.
 Integral derivatives from FoFJK, PRISM(SPDF).
 Do as many integral derivatives as possible in FoFJK.
 G2DrvN: MDV=    4194303872.
 G2DrvN: will do     4 centers at a time, making    1 passes.
 Calling FoFCou, ICntrl=  3507 FMM=F I1Cent=   0 AccDes= 0.00D+00.
 FoFJK:  IHMeth= 1 ICntrl=    3507 DoSepK=F KAlg= 0 I1Cent=   0 FoldK=F
 IRaf=         0 NMat=   1 IRICut=       1 DoRegI=T DoRafI=F ISym2E= 1.
 FoFCou: FMM=F IPFlag=           0 FMFlag=      100000 FMFlg1=           0
         NFxFlg=           0 DoJE=F BraDBF=F KetDBF=F FulRan=T
         wScrn=  0.000000 ICntrl=    3507 IOpCl=  0 I1Cent=           0 NGrid=           0
         NMat0=    1 NMatS0=      1 NMatT0=    0 NMatD0=    1 NMtDS0=    0 NMtDT0=    0
 Petite list used in FoFCou.
 End of G2Drv F.D. properties file   721 does not exist.
 End of G2Drv F.D. properties file   722 does not exist.
 End of G2Drv F.D. properties file   788 does not exist.
 Leave Link 1110 at Tue Jan  9 18:54:36 2018, MaxMem=  4194304000 cpu:         7.2
 (Enter /home/chemsoft/gaussian/g09e01/g09/l1002.exe)
 Minotr:  Closed shell wavefunction.
          IDoAtm=111
          Direct CPHF calculation.
          Differentiating once with respect to electric field.
                with respect to dipole field.
          Differentiating once with respect to nuclear coordinates.
          Using symmetry in CPHF.
          Requested convergence is 1.0D-08 RMS, and 1.0D-07 maximum.
          Secondary convergence is 1.0D-12 RMS, and 1.0D-12 maximum.
          NewPWx=T KeepS1=F KeepF1=F KeepIn=T MapXYZ=F SortEE=F KeepMc=T.
          MDV=    4194303908 using IRadAn=       2.
 Generate precomputed XC quadrature information.
 Keep J ints in memory in symmetry-blocked form, NReq=3441067.
 FoFCou: FMM=F IPFlag=           0 FMFlag=           0 FMFlg1=           0
         NFxFlg=           0 DoJE=F BraDBF=F KetDBF=F FulRan=T
         wScrn=  0.000000 ICntrl=     600 IOpCl=  0 I1Cent=           0 NGrid=           0
         NMat0=    1 NMatS0=   1711 NMatT0=    0 NMatD0=    1 NMtDS0=    0 NMtDT0=    0
 Petite list used in FoFCou.
          Solving linear equations simultaneously, MaxMat=       0.
          There are     9 degrees of freedom in the 1st order CPHF.  IDoFFX=4 NUNeed=     9.
      9 vectors produced by pass  0 Test12= 2.94D-15 1.11D-08 XBig12= 1.60D+01 2.82D+00.
 AX will form     9 AO Fock derivatives at one time.
      9 vectors produced by pass  1 Test12= 2.94D-15 1.11D-08 XBig12= 4.71D+00 1.02D+00.
      9 vectors produced by pass  2 Test12= 2.94D-15 1.11D-08 XBig12= 2.34D-02 4.66D-02.
      9 vectors produced by pass  3 Test12= 2.94D-15 1.11D-08 XBig12= 1.25D-04 5.67D-03.
      7 vectors produced by pass  4 Test12= 2.94D-15 1.11D-08 XBig12= 1.06D-07 1.10D-04.
      4 vectors produced by pass  5 Test12= 2.94D-15 1.11D-08 XBig12= 5.49D-11 2.62D-06.
      1 vectors produced by pass  6 Test12= 2.94D-15 1.11D-08 XBig12= 9.34D-15 3.02D-08.
 InvSVY:  IOpt=1 It=  1 EMax= 4.44D-16
 Solved reduced A of dimension    48 with     9 vectors.
 FullF1:  Do perturbations    1 to     9.
 Isotropic polarizability for W=    0.000000       10.20 Bohr**3.
 End of Minotr F.D. properties file   721 does not exist.
 End of Minotr F.D. properties file   722 does not exist.
 End of Minotr F.D. properties file   788 does not exist.
 Leave Link 1002 at Tue Jan  9 18:54:37 2018, MaxMem=  4194304000 cpu:         5.4
 (Enter /home/chemsoft/gaussian/g09e01/g09/l601.exe)
 Copying SCF densities to generalized density rwf, IOpCl= 0 IROHF=0.

 **********************************************************************

            Population analysis using the SCF density.

 **********************************************************************

 Orbital symmetries:
       Occupied  (A1) (A1) (B2) (A1) (B1)
       Virtual   (A1) (B2) (A1) (B2) (A1) (B1) (B2) (A2) (A1) (B1)
                 (B2) (A1) (B2) (A1) (B1) (A2) (A1) (A1) (B2) (B2)
                 (A1) (B1) (B2) (A1) (A2) (B2) (B1) (A1) (B2) (A2)
                 (A1) (B1) (A2) (A1) (B2) (B1) (B2) (A1) (A1) (B2)
                 (B1) (A1) (B1) (A2) (B2) (A1) (B1) (A2) (A1) (B2)
                 (A1) (B2) (A1)
 The electronic state is 1-A1.
 Alpha  occ. eigenvalues --  -18.79036  -0.84680  -0.41425  -0.31430  -0.23929
 Alpha virt. eigenvalues --   -0.05666   0.00841   0.27330   0.27751   0.47241
 Alpha virt. eigenvalues --    0.51301   0.57896   0.58544   0.62209   0.74678
 Alpha virt. eigenvalues --    0.84452   0.94366   1.06451   1.08283   1.57851
 Alpha virt. eigenvalues --    1.62018   1.68182   1.95511   2.00800   2.31830
 Alpha virt. eigenvalues --    2.32331   2.99792   3.07615   3.07849   3.08044
 Alpha virt. eigenvalues --    3.11835   3.19582   3.28314   3.35263   3.42377
 Alpha virt. eigenvalues --    3.48724   3.62468   3.64341   3.66417   3.77350
 Alpha virt. eigenvalues --    3.88675   4.02933   4.09057   4.63413   4.97619
 Alpha virt. eigenvalues --    5.15169   5.29247   5.64475   5.67589   5.93074
 Alpha virt. eigenvalues --    5.96941   6.31493   6.46032   6.48708   6.50116
 Alpha virt. eigenvalues --    6.80623   6.94677   9.00601
          Condensed to atoms (all electrons):
               1          2          3
     1  O    7.946554   0.278776   0.278776
     2  H    0.278776   0.488409  -0.019239
     3  H    0.278776  -0.019239   0.488409
 Mulliken charges:
               1
     1  O   -0.504107
     2  H    0.252053
     3  H    0.252053
 Sum of Mulliken charges =  -0.00000
 Mulliken charges with hydrogens summed into heavy atoms:
               1
     1  O   -0.000000
 APT charges:
               1
     1  O   -0.361948
     2  H    0.180974
     3  H    0.180974
 Sum of APT charges =   0.00000
 APT charges with hydrogens summed into heavy atoms:
               1
     1  O    0.000000
 Electronic spatial extent (au):  <R**2>=             22.9412
 Charge=             -0.0000 electrons
 Dipole moment (field-independent basis, Debye):
    X=             -0.0000    Y=             -0.0000    Z=             -1.8107  Tot=              1.8107
 Quadrupole moment (field-independent basis, Debye-Ang):
   XX=             -7.8512   YY=             -3.7048   ZZ=             -6.4004
   XY=              0.0000   XZ=              0.0000   YZ=              0.0000
 Traceless Quadrupole moment (field-independent basis, Debye-Ang):
   XX=             -1.8657   YY=              2.2807   ZZ=             -0.4149
   XY=              0.0000   XZ=              0.0000   YZ=              0.0000
 Octapole moment (field-independent basis, Debye-Ang**2):
  XXX=              0.0000  YYY=             -0.0000  ZZZ=             -0.5175  XYY=             -0.0000
  XXY=              0.0000  XXZ=             -0.0249  XZZ=              0.0000  YZZ=             -0.0000
  YYZ=             -1.8878  XYZ=             -0.0000
 Hexadecapole moment (field-independent basis, Debye-Ang**3):
 XXXX=             -6.5113 YYYY=             -8.4356 ZZZZ=             -8.5393 XXXY=             -0.0000
 XXXZ=             -0.0000 YYYX=              0.0000 YYYZ=              0.0000 ZZZX=             -0.0000
 ZZZY=             -0.0000 XXYY=             -3.2067 XXZZ=             -2.5941 YYZZ=             -2.2744
 XXYZ=             -0.0000 YYXZ=              0.0000 ZZXY=             -0.0000
 N-N= 7.326530533738D+00 E-N=-1.951815176732D+02  KE= 7.550366507241D+01
 Symmetry A1   KE= 6.766018313347D+01
 Symmetry A2   KE= 2.806972978191D-21
 Symmetry B1   KE= 4.632292928169D+00
 Symmetry B2   KE= 3.211189010765D+00
  Exact polarizability:   5.837   0.000  14.900  -0.000   0.000   9.860
 Approx polarizability:   7.065   0.000  24.999   0.000   0.000  17.080
 No NMR shielding tensors so no spin-rotation constants.
 Leave Link  601 at Tue Jan  9 18:54:38 2018, MaxMem=  4194304000 cpu:         7.8
 (Enter /home/chemsoft/gaussian/g09e01/g09/l607.exe)
 ******************************Gaussian NBO Version 3.1******************************
             N A T U R A L   A T O M I C   O R B I T A L   A N D
          N A T U R A L   B O N D   O R B I T A L   A N A L Y S I S
 ******************************Gaussian NBO Version 3.1******************************
       /RESON  / : Allow strongly delocalized NBO set

 Analyzing the SCF density

 Job title: Water BP86/cc-pVTZ                                              

 Storage needed:     10408 in NPA,     13669 in NBO (4194303943 available)


 NATURAL POPULATIONS:  Natural atomic orbital occupancies 
                                                          
   NAO  Atom  No  lang   Type(AO)    Occupancy      Energy
 ----------------------------------------------------------
     1    O    1  S      Cor( 1S)     1.99995     -18.66419
     2    O    1  S      Val( 2S)     1.87442      -0.86670
     3    O    1  S      Ryd( 3S)     0.00062       1.46204
     4    O    1  S      Ryd( 4S)     0.00000       7.85477
     5    O    1  px     Val( 2p)     1.99440      -0.23616
     6    O    1  px     Ryd( 3p)     0.00023       0.54772
     7    O    1  px     Ryd( 4p)     0.00000       3.58057
     8    O    1  py     Val( 2p)     1.42278      -0.26626
     9    O    1  py     Ryd( 3p)     0.00061       0.59088
    10    O    1  py     Ryd( 4p)     0.00000       4.25970
    11    O    1  pz     Val( 2p)     1.59866      -0.25560
    12    O    1  pz     Ryd( 3p)     0.00010       0.56214
    13    O    1  pz     Ryd( 4p)     0.00008       3.94039
    14    O    1  dxy    Ryd( 3d)     0.00000       1.82132
    15    O    1  dxy    Ryd( 4d)     0.00000       6.22419
    16    O    1  dxz    Ryd( 3d)     0.00140       1.69462
    17    O    1  dxz    Ryd( 4d)     0.00001       6.16723
    18    O    1  dyz    Ryd( 3d)     0.00129       2.36404
    19    O    1  dyz    Ryd( 4d)     0.00006       6.55568
    20    O    1  dx2y2  Ryd( 3d)     0.00096       2.04927
    21    O    1  dx2y2  Ryd( 4d)     0.00002       6.35780
    22    O    1  dz2    Ryd( 3d)     0.00125       1.90582
    23    O    1  dz2    Ryd( 4d)     0.00001       6.28322
    24    O    1  f(0)   Ryd( 4f)     0.00001       5.27057
    25    O    1  f(C1)  Ryd( 4f)     0.00001       5.09191
    26    O    1  f(S1)  Ryd( 4f)     0.00000       5.55427
    27    O    1  f(C2)  Ryd( 4f)     0.00008       5.51836
    28    O    1  f(S2)  Ryd( 4f)     0.00000       5.37679
    29    O    1  f(C3)  Ryd( 4f)     0.00010       5.30458
    30    O    1  f(S3)  Ryd( 4f)     0.00004       5.30235

    31    H    2  S      Val( 1S)     0.54583      -0.09096
    32    H    2  S      Ryd( 2S)     0.00167       0.74010
    33    H    2  S      Ryd( 3S)     0.00003       1.77536
    34    H    2  px     Ryd( 2p)     0.00189       0.99588
    35    H    2  px     Ryd( 3p)     0.00000       3.39871
    36    H    2  py     Ryd( 2p)     0.00015       1.80759
    37    H    2  py     Ryd( 3p)     0.00026       3.73525
    38    H    2  pz     Ryd( 2p)     0.00134       1.42116
    39    H    2  pz     Ryd( 3p)     0.00019       3.58806
    40    H    2  dxy    Ryd( 3d)     0.00003       3.46396
    41    H    2  dxz    Ryd( 3d)     0.00000       3.30757
    42    H    2  dyz    Ryd( 3d)     0.00002       3.84192
    43    H    2  dx2y2  Ryd( 3d)     0.00004       3.57832
    44    H    2  dz2    Ryd( 3d)     0.00001       3.48199

    45    H    3  S      Val( 1S)     0.54583      -0.09096
    46    H    3  S      Ryd( 2S)     0.00167       0.74010
    47    H    3  S      Ryd( 3S)     0.00003       1.77536
    48    H    3  px     Ryd( 2p)     0.00189       0.99588
    49    H    3  px     Ryd( 3p)     0.00000       3.39871
    50    H    3  py     Ryd( 2p)     0.00015       1.80759
    51    H    3  py     Ryd( 3p)     0.00026       3.73525
    52    H    3  pz     Ryd( 2p)     0.00134       1.42116
    53    H    3  pz     Ryd( 3p)     0.00019       3.58806
    54    H    3  dxy    Ryd( 3d)     0.00003       3.46396
    55    H    3  dxz    Ryd( 3d)     0.00000       3.30757
    56    H    3  dyz    Ryd( 3d)     0.00002       3.84192
    57    H    3  dx2y2  Ryd( 3d)     0.00004       3.57832
    58    H    3  dz2    Ryd( 3d)     0.00001       3.48199

 WARNING:  Population inversion found on atom  H    2
           Population inversion found on atom  H    3


 Summary of Natural Population Analysis:                  
                                                          
                                       Natural Population 
                Natural  -----------------------------------------------
    Atom  No    Charge         Core      Valence    Rydberg      Total
 -----------------------------------------------------------------------
      O    1   -0.89710      1.99995     6.89025    0.00690     8.89710
      H    2    0.44855      0.00000     0.54583    0.00562     0.55145
      H    3    0.44855      0.00000     0.54583    0.00562     0.55145
 =======================================================================
   * Total *   -0.00000      1.99995     7.98191    0.01814    10.00000

                                 Natural Population      
 --------------------------------------------------------
   Core                       1.99995 ( 99.9975% of   2)
   Valence                    7.98191 ( 99.7738% of   8)
   Natural Minimal Basis      9.98186 ( 99.8186% of  10)
   Natural Rydberg Basis      0.01814 (  0.1814% of  10)
 --------------------------------------------------------

    Atom  No          Natural Electron Configuration
 ----------------------------------------------------------------------------
      O    1      [core]2S( 1.87)2p( 5.02)
      H    2            1S( 0.55)
      H    3            1S( 0.55)


 NATURAL BOND ORBITAL ANALYSIS:

                       Occupancies       Lewis Structure    Low   High
           Occ.    -------------------  -----------------   occ   occ
  Cycle   Thresh.   Lewis   Non-Lewis     CR  BD  3C  LP    (L)   (NL)   Dev
 =============================================================================
   1(1)    1.90     9.98893   0.01107      1   2   0   2     0      0    0.00
 -----------------------------------------------------------------------------

 Structure accepted: No low occupancy Lewis orbitals

 --------------------------------------------------------
   Core                      1.99995 ( 99.998% of   2)
   Valence Lewis             7.98898 ( 99.862% of   8)
  ==================       ============================
   Total Lewis               9.98893 ( 99.889% of  10)
  -----------------------------------------------------
   Valence non-Lewis         0.00098 (  0.010% of  10)
   Rydberg non-Lewis         0.01009 (  0.101% of  10)
  ==================       ============================
   Total non-Lewis           0.01107 (  0.111% of  10)
 --------------------------------------------------------


       (Occupancy)   Bond orbital/ Coefficients/ Hybrids
 ---------------------------------------------------------------------------------
     1. (1.99868) BD ( 1) O   1 - H   2  
                ( 72.68%)   0.8525* O   1 s( 11.66%)p 7.56( 88.23%)d 0.01(  0.10%)
                                                  f 0.00(  0.00%)
                                           -0.0000  0.3413 -0.0130  0.0000  0.0000
                                            0.0000  0.0000  0.7066 -0.0147  0.0009
                                           -0.6187 -0.0007  0.0022  0.0000  0.0000
                                            0.0000  0.0000 -0.0213 -0.0045 -0.0133
                                           -0.0005  0.0177 -0.0014  0.0004  0.0000
                                           -0.0008  0.0051  0.0000  0.0000 -0.0040
                ( 27.32%)   0.5227* H   2 s( 99.89%)p 0.00(  0.10%)d 0.00(  0.01%)
                                            0.9994 -0.0008 -0.0002  0.0000  0.0000
                                           -0.0144  0.0212 -0.0057 -0.0182  0.0000
                                            0.0000 -0.0049 -0.0074 -0.0011
     2. (1.99868) BD ( 1) O   1 - H   3  
                ( 72.68%)   0.8525* O   1 s( 11.66%)p 7.56( 88.23%)d 0.01(  0.10%)
                                                  f 0.00(  0.00%)
                                            0.0000 -0.3413  0.0130  0.0000  0.0000
                                            0.0000  0.0000  0.7066 -0.0147  0.0009
                                            0.6187  0.0007 -0.0022  0.0000  0.0000
                                            0.0000  0.0000 -0.0213 -0.0045  0.0133
                                            0.0005 -0.0177  0.0014 -0.0004  0.0000
                                           -0.0008 -0.0051  0.0000  0.0000 -0.0040
                ( 27.32%)   0.5227* H   3 s( 99.89%)p 0.00(  0.10%)d 0.00(  0.01%)
                                           -0.9994  0.0008  0.0002  0.0000  0.0000
                                           -0.0144  0.0212  0.0057  0.0182  0.0000
                                            0.0000 -0.0049  0.0074  0.0011
     3. (1.99995) CR ( 1) O   1           s(100.00%)
                                            1.0000 -0.0000 -0.0000  0.0000  0.0000
                                            0.0000  0.0000 -0.0000 -0.0000  0.0000
                                           -0.0000 -0.0000 -0.0000  0.0000  0.0000
                                            0.0000  0.0000  0.0000 -0.0000  0.0000
                                           -0.0000  0.0000 -0.0000 -0.0000  0.0000
                                           -0.0000  0.0000  0.0000  0.0000  0.0000
     4. (1.99616) LP ( 1) O   1           s(  0.00%)p 1.00( 99.92%)d 0.00(  0.07%)
                                                  f 0.00(  0.01%)
                                            0.0000  0.0000  0.0000  0.0000  0.9996
                                            0.0108 -0.0016  0.0000  0.0000  0.0000
                                            0.0000  0.0000  0.0000  0.0000  0.0000
                                           -0.0265  0.0020  0.0000  0.0000  0.0000
                                            0.0000  0.0000  0.0000  0.0000  0.0023
                                            0.0000  0.0000  0.0000 -0.0070  0.0000
     5. (1.99546) LP ( 2) O   1           s( 76.65%)p 0.30( 23.31%)d 0.00(  0.04%)
                                                  f 0.00(  0.00%)
                                            0.0000  0.8755  0.0075  0.0000  0.0000
                                            0.0000  0.0000  0.0000  0.0000 -0.0000
                                            0.4827  0.0070  0.0055  0.0000  0.0000
                                            0.0000  0.0000 -0.0000  0.0000 -0.0147
                                            0.0028 -0.0129  0.0011  0.0023  0.0000
                                            0.0000  0.0013  0.0000  0.0000 -0.0000
     6. (0.00000) RY*( 1) O   1           s( 99.96%)p 0.00(  0.04%)d 0.00(  0.00%)
                                                  f 0.00(  0.00%)
     7. (0.00000) RY*( 2) O   1           s(100.00%)
     8. (0.00000) RY*( 3) O   1           s(  0.00%)p 1.00(100.00%)d 0.00(  0.00%)
     9. (0.00000) RY*( 4) O   1           s(  0.00%)p 1.00(100.00%)
    10. (0.00000) RY*( 5) O   1           s(  0.00%)p 1.00(100.00%)d 0.00(  0.00%)
                                                  f 0.00(  0.00%)
    11. (0.00000) RY*( 6) O   1           s(  0.00%)p 1.00(100.00%)
    12. (0.00000) RY*( 7) O   1           s(  0.00%)p 1.00(100.00%)d 0.00(  0.00%)
    13. (0.00000) RY*( 8) O   1           s(  0.00%)p 1.00(100.00%)d 0.00(  0.00%)
    14. (0.00000) RY*( 9) O   1           s(  0.00%)p 0.00(  0.00%)d 1.00(100.00%)
    15. (0.00000) RY*(10) O   1           s(  0.00%)p 0.00(  0.00%)d 1.00(100.00%)
    16. (0.00000) RY*(11) O   1           s(  0.00%)p 1.00(  0.07%)d99.99( 99.93%)
                                                  f 0.00(  0.00%)
    17. (0.00000) RY*(12) O   1           s(  0.00%)p 0.00(  0.00%)d 1.00(100.00%)
    18. (0.00000) RY*(13) O   1           s(  0.00%)p 1.00(  0.09%)d99.99( 99.91%)
                                                  f 0.00(  0.00%)
    19. (0.00000) RY*(14) O   1           s(  0.00%)p 0.00(  0.00%)d 1.00(100.00%)
    20. (0.00001) RY*(15) O   1           s(  0.05%)p 0.18(  0.01%)d99.99( 99.94%)
                                                  f 0.00(  0.00%)
    21. (0.00000) RY*(16) O   1           s(  0.00%)p 0.00(  0.00%)d 1.00(100.00%)
    22. (0.00000) RY*(17) O   1           s(  0.00%)p 1.00(  0.08%)d99.99( 99.92%)
                                                  f 0.00(  0.00%)
    23. (0.00000) RY*(18) O   1           s(  0.00%)p 0.00(  0.00%)d 1.00(100.00%)
    24. (0.00000) RY*(19) O   1           s(  0.00%)p 0.00(  0.00%)d 0.00(  0.00%)
                                                  f 1.00(100.00%)
    25. (0.00000) RY*(20) O   1           s(  0.00%)p 0.00(  0.00%)d 0.00(  0.00%)
                                                  f 1.00(100.00%)
    26. (0.00000) RY*(21) O   1           s(  0.00%)p 0.00(  0.00%)d 0.00(  0.00%)
                                                  f 1.00(100.00%)
    27. (0.00000) RY*(22) O   1           s(  0.00%)p 0.00(  0.00%)d 0.00(  0.00%)
                                                  f 1.00( 99.99%)
    28. (0.00000) RY*(23) O   1           s(  0.00%)p 0.00(  0.00%)d 0.00(  0.00%)
                                                  f 1.00(100.00%)
    29. (0.00000) RY*(24) O   1           s(  0.00%)p 0.00(  0.00%)d 0.00(  0.00%)
                                                  f 1.00(100.00%)
    30. (0.00000) RY*(25) O   1           s(  0.00%)p 0.00(  0.00%)d 0.00(  0.00%)
                                                  f 1.00(100.00%)
    31. (0.00231) RY*( 1) H   2           s( 59.25%)p 0.68( 40.02%)d 0.01(  0.73%)
                                           -0.0040  0.7691 -0.0315  0.0000  0.0000
                                           -0.1180 -0.0787 -0.6150 -0.0426  0.0000
                                            0.0000  0.0380 -0.0519 -0.0564
    32. (0.00192) RY*( 2) H   2           s(  0.00%)p 1.00( 98.35%)d 0.02(  1.65%)
                                            0.0000  0.0000  0.0000  0.9915  0.0216
                                            0.0000  0.0000  0.0000  0.0000 -0.1211
                                            0.0432  0.0000  0.0000  0.0000
    33. (0.00079) RY*( 3) H   2           s( 40.30%)p 1.46( 58.91%)d 0.02(  0.80%)
                                            0.0082  0.6244  0.1143  0.0000  0.0000
                                            0.0879 -0.0626  0.7598  0.0083  0.0000
                                            0.0000 -0.0142  0.0843 -0.0253
    34. (0.00002) RY*( 4) H   2           s( 95.42%)p 0.04(  3.46%)d 0.01(  1.13%)
    35. (0.00000) RY*( 5) H   2           s(  0.17%)p99.99( 99.82%)d 0.01(  0.00%)
    36. (0.00000) RY*( 6) H   2           s(  3.17%)p30.55( 96.82%)d 0.00(  0.01%)
    37. (0.00000) RY*( 7) H   2           s(  0.00%)p 1.00(100.00%)d 0.00(  0.00%)
    38. (0.00000) RY*( 8) H   2           s(  0.35%)p99.99( 99.64%)d 0.01(  0.00%)
    39. (0.00000) RY*( 9) H   2           s(  0.00%)p 1.00(  1.47%)d67.08( 98.53%)
    40. (0.00000) RY*(10) H   2           s(  0.00%)p 1.00(  0.18%)d99.99( 99.82%)
    41. (0.00000) RY*(11) H   2           s(  0.55%)p 0.17(  0.09%)d99.99( 99.36%)
    42. (0.00000) RY*(12) H   2           s(  0.45%)p 2.47(  1.12%)d99.99( 98.43%)
    43. (0.00000) RY*(13) H   2           s(  0.45%)p 0.05(  0.02%)d99.99( 99.53%)
    44. (0.00231) RY*( 1) H   3           s( 59.25%)p 0.68( 40.02%)d 0.01(  0.73%)
                                           -0.0040  0.7691 -0.0315  0.0000  0.0000
                                            0.1180  0.0787 -0.6150 -0.0426  0.0000
                                            0.0000 -0.0380 -0.0519 -0.0564
    45. (0.00192) RY*( 2) H   3           s(  0.00%)p 1.00( 98.35%)d 0.02(  1.65%)
                                            0.0000  0.0000  0.0000  0.9915  0.0216
                                            0.0000  0.0000  0.0000  0.0000  0.1211
                                            0.0432  0.0000  0.0000  0.0000
    46. (0.00079) RY*( 3) H   3           s( 40.30%)p 1.46( 58.91%)d 0.02(  0.80%)
                                            0.0082  0.6244  0.1143  0.0000  0.0000
                                           -0.0879  0.0626  0.7598  0.0083  0.0000
                                            0.0000  0.0142  0.0843 -0.0253
    47. (0.00002) RY*( 4) H   3           s( 95.42%)p 0.04(  3.46%)d 0.01(  1.13%)
    48. (0.00000) RY*( 5) H   3           s(  0.17%)p99.99( 99.82%)d 0.01(  0.00%)
    49. (0.00000) RY*( 6) H   3           s(  3.17%)p30.55( 96.82%)d 0.00(  0.01%)
    50. (0.00000) RY*( 7) H   3           s(  0.00%)p 1.00(100.00%)d 0.00(  0.00%)
    51. (0.00000) RY*( 8) H   3           s(  0.35%)p99.99( 99.64%)d 0.01(  0.00%)
    52. (0.00000) RY*( 9) H   3           s(  0.00%)p 1.00(  1.47%)d67.08( 98.53%)
    53. (0.00000) RY*(10) H   3           s(  0.00%)p 1.00(  0.18%)d99.99( 99.82%)
    54. (0.00000) RY*(11) H   3           s(  0.55%)p 0.17(  0.09%)d99.99( 99.36%)
    55. (0.00000) RY*(12) H   3           s(  0.45%)p 2.47(  1.12%)d99.99( 98.43%)
    56. (0.00000) RY*(13) H   3           s(  0.45%)p 0.05(  0.02%)d99.99( 99.53%)
    57. (0.00049) BD*( 1) O   1 - H   2  
                ( 27.32%)   0.5227* O   1 s( 11.66%)p 7.56( 88.23%)d 0.01(  0.10%)
                                                  f 0.00(  0.00%)
                                            0.0000 -0.3413  0.0130 -0.0000 -0.0000
                                           -0.0000 -0.0000 -0.7066  0.0147 -0.0009
                                            0.6187  0.0007 -0.0022 -0.0000 -0.0000
                                           -0.0000 -0.0000  0.0213  0.0045  0.0133
                                            0.0005 -0.0177  0.0014 -0.0004 -0.0000
                                            0.0008 -0.0051 -0.0000 -0.0000  0.0040
                ( 72.68%)  -0.8525* H   2 s( 99.89%)p 0.00(  0.10%)d 0.00(  0.01%)
                                           -0.9994  0.0008  0.0002 -0.0000 -0.0000
                                            0.0144 -0.0212  0.0057  0.0182 -0.0000
                                           -0.0000  0.0049  0.0074  0.0011
    58. (0.00049) BD*( 1) O   1 - H   3  
                ( 27.32%)   0.5227* O   1 s( 11.66%)p 7.56( 88.23%)d 0.01(  0.10%)
                                                  f 0.00(  0.00%)
                                           -0.0000  0.3413 -0.0130 -0.0000 -0.0000
                                           -0.0000 -0.0000 -0.7066  0.0147 -0.0009
                                           -0.6187 -0.0007  0.0022 -0.0000 -0.0000
                                           -0.0000 -0.0000  0.0213  0.0045 -0.0133
                                           -0.0005  0.0177 -0.0014  0.0004 -0.0000
                                            0.0008  0.0051 -0.0000 -0.0000  0.0040
                ( 72.68%)  -0.8525* H   3 s( 99.89%)p 0.00(  0.10%)d 0.00(  0.01%)
                                            0.9994 -0.0008 -0.0002 -0.0000 -0.0000
                                            0.0144 -0.0212 -0.0057 -0.0182 -0.0000
                                           -0.0000  0.0049 -0.0074 -0.0011


 NHO Directionality and "Bond Bending" (deviations from line of nuclear centers)

         [Thresholds for printing:  angular deviation  >  1.0 degree]
                                    hybrid p-character > 25.0%
                                    orbital occupancy  >  0.10e

                                Line of Centers        Hybrid 1              Hybrid 2
                                ---------------  -------------------   ------------------
                NBO               Theta   Phi    Theta   Phi    Dev    Theta   Phi    Dev
 ========================================================================================
     1. BD (   1) O   1 - H   2   125.5   90.0   131.7   90.0   6.2      --     --    --
     2. BD (   1) O   1 - H   3   125.5  270.0   131.7  270.0   6.2      --     --    --
     4. LP (   1) O   1             --     --     90.0    0.0   --       --     --    --


 Second Order Perturbation Theory Analysis of Fock Matrix in NBO Basis

     Threshold for printing:   0.50 kcal/mol
                                                                              E(2)  E(j)-E(i) F(i,j)
         Donor NBO (i)                     Acceptor NBO (j)                 kcal/mol   a.u.    a.u. 
 ===================================================================================================

 within unit  1
   1. BD (   1) O   1 - H   2        / 46. RY*(   3) H   3                    0.89    1.62    0.034
   2. BD (   1) O   1 - H   3        / 33. RY*(   3) H   2                    0.89    1.62    0.034
   4. LP (   1) O   1                / 32. RY*(   2) H   2                    1.73    1.34    0.043
   4. LP (   1) O   1                / 45. RY*(   2) H   3                    1.73    1.34    0.043
   5. LP (   2) O   1                / 31. RY*(   1) H   2                    2.06    1.71    0.053
   5. LP (   2) O   1                / 44. RY*(   1) H   3                    2.06    1.71    0.053


 Natural Bond Orbitals (Summary):

                                                            Principal Delocalizations
           NBO                        Occupancy    Energy   (geminal,vicinal,remote)
 ====================================================================================
 Molecular unit  1  (H2O)
     1. BD (   1) O   1 - H   2          1.99868    -0.49736  46(v)
     2. BD (   1) O   1 - H   3          1.99868    -0.49736  33(v)
     3. CR (   1) O   1                  1.99995   -18.66415   
     4. LP (   1) O   1                  1.99616    -0.23663  32(v),45(v)
     5. LP (   2) O   1                  1.99546    -0.70112  31(v),44(v)
     6. RY*(   1) O   1                  0.00000     1.46120   
     7. RY*(   2) O   1                  0.00000     7.85477   
     8. RY*(   3) O   1                  0.00000     0.54776   
     9. RY*(   4) O   1                  0.00000     3.58058   
    10. RY*(   5) O   1                  0.00000     0.59050   
    11. RY*(   6) O   1                  0.00000     4.25961   
    12. RY*(   7) O   1                  0.00000     0.56222   
    13. RY*(   8) O   1                  0.00000     3.94060   
    14. RY*(   9) O   1                  0.00000     1.82132   
    15. RY*(  10) O   1                  0.00000     6.22419   
    16. RY*(  11) O   1                  0.00000     1.69507   
    17. RY*(  12) O   1                  0.00000     6.16715   
    18. RY*(  13) O   1                  0.00000     2.36375   
    19. RY*(  14) O   1                  0.00000     6.55544   
    20. RY*(  15) O   1                  0.00001     2.04950   
    21. RY*(  16) O   1                  0.00000     6.35778   
    22. RY*(  17) O   1                  0.00000     1.90645   
    23. RY*(  18) O   1                  0.00000     6.28312   
    24. RY*(  19) O   1                  0.00000     5.27059   
    25. RY*(  20) O   1                  0.00000     5.09192   
    26. RY*(  21) O   1                  0.00000     5.55427   
    27. RY*(  22) O   1                  0.00000     5.51846   
    28. RY*(  23) O   1                  0.00000     5.37679   
    29. RY*(  24) O   1                  0.00000     5.30463   
    30. RY*(  25) O   1                  0.00000     5.30244   
    31. RY*(   1) H   2                  0.00231     1.00863   
    32. RY*(   2) H   2                  0.00192     1.10116   
    33. RY*(   3) H   2                  0.00079     1.12039   
    34. RY*(   4) H   2                  0.00002     1.89632   
    35. RY*(   5) H   2                  0.00000     1.94281   
    36. RY*(   6) H   2                  0.00000     3.53906   
    37. RY*(   7) H   2                  0.00000     3.42358   
    38. RY*(   8) H   2                  0.00000     3.61668   
    39. RY*(   9) H   2                  0.00000     3.35819   
    40. RY*(  10) H   2                  0.00000     3.28318   
    41. RY*(  11) H   2                  0.00000     3.79524   
    42. RY*(  12) H   2                  0.00000     3.58624   
    43. RY*(  13) H   2                  0.00000     3.46076   
    44. RY*(   1) H   3                  0.00231     1.00863   
    45. RY*(   2) H   3                  0.00192     1.10116   
    46. RY*(   3) H   3                  0.00079     1.12039   
    47. RY*(   4) H   3                  0.00002     1.89632   
    48. RY*(   5) H   3                  0.00000     1.94281   
    49. RY*(   6) H   3                  0.00000     3.53906   
    50. RY*(   7) H   3                  0.00000     3.42358   
    51. RY*(   8) H   3                  0.00000     3.61668   
    52. RY*(   9) H   3                  0.00000     3.35819   
    53. RY*(  10) H   3                  0.00000     3.28318   
    54. RY*(  11) H   3                  0.00000     3.79524   
    55. RY*(  12) H   3                  0.00000     3.58624   
    56. RY*(  13) H   3                  0.00000     3.46076   
    57. BD*(   1) O   1 - H   2          0.00049     0.06658   
    58. BD*(   1) O   1 - H   3          0.00049     0.06658   
       -------------------------------
              Total Lewis    9.98893  ( 99.8893%)
        Valence non-Lewis    0.00098  (  0.0098%)
        Rydberg non-Lewis    0.01009  (  0.1009%)
       -------------------------------
            Total unit  1   10.00000  (100.0000%)
           Charge unit  1    0.00000
 Leave Link  607 at Tue Jan  9 18:54:58 2018, MaxMem=  4194304000 cpu:       124.0
 (Enter /home/chemsoft/gaussian/g09e01/g09/l701.exe)
 Compute integral second derivatives.
 ... and contract with generalized density number  0.
 Leave Link  701 at Tue Jan  9 18:54:58 2018, MaxMem=  4194304000 cpu:         3.0
 (Enter /home/chemsoft/gaussian/g09e01/g09/l702.exe)
 L702 exits ... SP integral derivatives will be done elsewhere.
 Leave Link  702 at Tue Jan  9 18:54:58 2018, MaxMem=  4194304000 cpu:         0.1
 (Enter /home/chemsoft/gaussian/g09e01/g09/l703.exe)
 Compute integral second derivatives, UseDBF=F ICtDFT=           0.
 Integral derivatives from FoFJK, PRISM(SPDF).
 Calling FoFJK, ICntrl=    100527 FMM=F ISym2X=1 I1Cent= 0 IOpClX= 0 NMat=1 NMatS=1 NMatT=0.
 FoFJK:  IHMeth= 1 ICntrl=  100527 DoSepK=F KAlg= 0 I1Cent=   0 FoldK=F
 IRaf=         0 NMat=   1 IRICut=       1 DoRegI=T DoRafI=F ISym2E= 1.
 FoFCou: FMM=F IPFlag=           0 FMFlag=      100000 FMFlg1=         800
         NFxFlg=           0 DoJE=F BraDBF=F KetDBF=F FulRan=T
         wScrn=  0.000000 ICntrl=  100527 IOpCl=  0 I1Cent=           0 NGrid=           0
         NMat0=    1 NMatS0=      1 NMatT0=    0 NMatD0=    1 NMtDS0=    0 NMtDT0=    0
 Petite list used in FoFCou.
 Leave Link  703 at Tue Jan  9 18:55:00 2018, MaxMem=  4194304000 cpu:        11.3
 (Enter /home/chemsoft/gaussian/g09e01/g09/l716.exe)
 Dipole        =-5.83793664D-17-9.11312584D-16-7.12387304D-01
 Polarizability= 5.83736748D+00 2.50221847D-10 1.49000366D+01
                -3.01514645D-11 1.52490262D-09 9.86020688D+00
 Full mass-weighted force constant matrix:
 Low frequencies ---   -0.0019   -0.0004    0.0011 1044.3354 1107.3066 1140.7698
 Low frequencies --- 1359.9676 1544.0913 1629.2352
 Diagonal vibrational polarizability:
        0.0000000       0.1377976       0.6169436
 Harmonic frequencies (cm**-1), IR intensities (KM/Mole), Raman scattering
 activities (A**4/AMU), depolarization ratios for plane and unpolarized
 incident light, reduced masses (AMU), force constants (mDyne/A),
 and normal coordinates:
                      1                      2                      3
                     A1                     B2                     A1
 Frequencies --   1359.9676              1541.3689              1629.2352
 Red. masses --      1.0366                 1.0863                 1.0920
 Frc consts  --      1.1296                 1.5206                 1.7078
 IR Inten    --      1.6639                12.1653                58.4647
  Atom  AN      X      Y      Z        X      Y      Z        X      Y      Z
     1   8     0.00   0.00   0.04    -0.00  -0.07   0.00    -0.00   0.00  -0.07
     2   1     0.00   0.61  -0.35     0.00   0.57  -0.41     0.00   0.38   0.59
     3   1    -0.00  -0.61  -0.35     0.00   0.57   0.41     0.00  -0.38   0.59

 -------------------
 - Thermochemistry -
 -------------------
 Temperature   298.150 Kelvin.  Pressure   1.00000 Atm.
 Atom     1 has atomic number  8 and mass  15.99491
 Atom     2 has atomic number  1 and mass   1.00783
 Atom     3 has atomic number  1 and mass   1.00783
 Molecular mass:    18.01056 amu.
 Principal axes and moments of inertia in atomic units:
                           1         2         3
     Eigenvalues --     3.10412   6.86985   9.97397
           X            0.00000   0.00000   1.00000
           Y            1.00000  -0.00000  -0.00000
           Z            0.00000   1.00000  -0.00000
 This molecule is an asymmetric top.
 Rotational symmetry number  2.
 Rotational temperatures (Kelvin)     27.90289    12.60781     8.68399
 Rotational constants (GHZ):         581.40250   262.70449   180.94513
 Zero-point vibrational energy      27098.8 (Joules/Mol)
                                    6.47678 (Kcal/Mol)
 Vibrational temperatures:   1956.69  2217.68  2344.10
          (Kelvin)
 
 Zero-point correction=                           0.010321 (Hartree/Particle)
 Thermal correction to Energy=                    0.013170
 Thermal correction to Enthalpy=                  0.014114
 Thermal correction to Gibbs Free Energy=        -0.007931
 Sum of electronic and zero-point Energies=            -76.390279
 Sum of electronic and thermal Energies=               -76.387431
 Sum of electronic and thermal Enthalpies=             -76.386487
 Sum of electronic and thermal Free Energies=          -76.408532
 
                     E (Thermal)             CV                S
                      KCal/Mol        Cal/Mol-Kelvin    Cal/Mol-Kelvin
 Total                    8.264              6.195             46.397
 Electronic               0.000              0.000              0.000
 Translational            0.889              2.981             34.608
 Rotational               0.889              2.981             11.751
 Vibrational              6.487              0.233              0.038
                       Q            Log10(Q)             Ln(Q)
 Total Bot       0.444601D+04          3.647971          8.399763
 Total V=0       0.248586D+09          8.395476         19.331298
 Vib (Bot)       0.179280D-04         -4.746469        -10.929148
 Vib (V=0)       0.100239D+01          0.001037          0.002387
 Electronic      0.100000D+01          0.000000          0.000000
 Translational   0.300432D+07          6.477746         14.915562
 Rotational      0.825455D+02          1.916693          4.413349
 
                                                          Water BP86/cc-pVTZ
                                                             IR Spectrum
 
     1      1             1                                                                                                          
     6      5             3                                                                                                          
     2      4             6                                                                                                          
     9      1             0                                                                                                          
 
     X      X             X                                                                                                          
     X      X                                                                                                                        
     X      X                                                                                                                        
     X      X                                                                                                                        
     X                                                                                                                               
     X                                                                                                                               
     X                                                                                                                               
     X                                                                                                                               
     X                                                                                                                               
     X                                                                                                                               
     X                                                                                                                               
     X                                                                                                                               
     X                                                                                                                               
     X                                                                                                                               
     X                                                                                                                               
     X                                                                                                                               
     X                                                                                                                               
     X                                                                                                                               
     X                                                                                                                               
     X                                                                                                                               
 
 ***** Axes restored to original set *****
 -------------------------------------------------------------------
 Center     Atomic                   Forces (Hartrees/Bohr)
 Number     Number              X              Y              Z
 -------------------------------------------------------------------
      1        8           0.078929110    0.000000000    0.056299587
      2        1           0.013619420    0.000000000   -0.102570781
      3        1          -0.092548529   -0.000000000    0.046271194
 -------------------------------------------------------------------
 Cartesian Forces:  Max     0.102570781 RMS     0.058511115
 -----------------------------------------------------------------------------------------------
                       Internal Coordinate Forces (Hartree/Bohr or radian)
  Cent   Atom   N1       Length/X         N2         Alpha/Y        N3         Beta/Z          J
 -----------------------------------------------------------------------------------------------
      1  O 
      2  H        1  -0.102571(     1)
      3  H        1  -0.102571(     2)      2  -0.030884(     3)
 -----------------------------------------------------------------------------------------------
 Internal  Forces:  Max     0.102570781 RMS     0.085625881
 Force constants in Cartesian coordinates: 
                1             2             3             4             5 
      1  0.153688D+00
      2  0.000000D+00  0.738824D-01
      3  0.163842D-01  0.000000D+00  0.142404D+00
      4 -0.732696D-01  0.000000D+00 -0.259684D-01  0.693551D-01
      5  0.000000D+00 -0.369412D-01  0.000000D+00  0.000000D+00  0.432872D-01
      6  0.712283D-02  0.000000D+00 -0.747764D-01  0.188302D-02  0.000000D+00
      7 -0.804179D-01  0.000000D+00  0.958420D-02  0.391448D-02  0.000000D+00
      8  0.000000D+00 -0.369412D-01  0.000000D+00  0.000000D+00 -0.634601D-02
      9 -0.235071D-01  0.000000D+00 -0.676281D-01  0.240854D-01  0.000000D+00
                6             7             8             9 
      6  0.760542D-01
      7 -0.900586D-02  0.765034D-01
      8  0.000000D+00  0.000000D+00  0.432872D-01
      9 -0.127783D-02 -0.578339D-03  0.000000D+00  0.689059D-01
 Force constants in internal coordinates: 
                1             2             3 
      1  0.760542D-01
      2 -0.809918D-02  0.760542D-01
      3  0.938869D-02  0.934934D-02  0.124050D+00
 Leave Link  716 at Tue Jan  9 18:55:00 2018, MaxMem=  4194304000 cpu:         2.0
 (Enter /home/chemsoft/gaussian/g09e01/g09/l103.exe)

 GradGradGradGradGradGradGradGradGradGradGradGradGradGradGradGradGradGrad
 Berny optimization.
 Search for a local minimum.
 Step number   1 out of a maximum of    2
 All quantities printed in internal units (Hartrees-Bohrs-Radians)
 Second derivative matrix not updated -- analytic derivatives used.
 The second derivative matrix:
                          X1        Y1        Z1        X2        Y2
           X1           0.15369
           Y1           0.00000   0.07388
           Z1           0.01638   0.00000   0.14240
           X2          -0.07327   0.00000  -0.02597   0.06936
           Y2          -0.00000  -0.03694  -0.00000  -0.00000   0.04329
           Z2           0.00712  -0.00000  -0.07478   0.00188   0.00000
           X3          -0.08042  -0.00000   0.00958   0.00391   0.00000
           Y3           0.00000  -0.03694   0.00000  -0.00000  -0.00635
           Z3          -0.02351   0.00000  -0.06763   0.02409  -0.00000
                          Z2        X3        Y3        Z3
           Z2           0.07605
           X3          -0.00901   0.07650
           Y3          -0.00000  -0.00000   0.04329
           Z3          -0.00128  -0.00058   0.00000   0.06891
 ITU=  0
     Eigenvalues ---    0.07543   0.15498   0.19601
 Quadratic step=1.963D+00 exceeds max=3.000D-01 adjusted using Lamda=-4.553D-01.
 Angle between NR and scaled steps=  12.49 degrees.
 Angle between quadratic step and forces=  19.20 degrees.
 ClnCor:  largest displacement from symmetrization is 1.11D-11 for atom     3.
 Linear search not attempted -- first point.
 ClnCor:  largest displacement from symmetrization is 5.55D-16 for atom     3.
 B after Tr=     0.037495    0.000000    0.026745
         Rot=    1.000000   -0.000000    0.000000   -0.000000 Ang=   0.00 deg.
 Variable       Old X    -DE/DX   Delta X   Delta X   Delta X     New X
                                 (Linear)    (Quad)   (Total)
    X1       -0.00000   0.07893   0.00000   0.06152   0.09901   0.09901
    Y1       -0.00000   0.00000   0.00000   0.00000   0.00000   0.00000
    Z1       -0.00000   0.05630   0.00000   0.04388   0.07063   0.07063
    X2       -0.00000   0.01362   0.00000   0.01494   0.05243   0.05243
    Y2       -0.00000   0.00000   0.00000   0.00000   0.00000  -0.00000
    Z2        2.26767  -0.10257   0.00000  -0.20497  -0.17822   2.08945
    X3        2.14413  -0.09255   0.00000  -0.18894  -0.15145   1.99268
    Y3        0.00000  -0.00000   0.00000  -0.00000  -0.00000   0.00000
    Z3       -0.73828   0.04627   0.00000   0.08085   0.10760  -0.63068
         Item               Value     Threshold  Converged?
 Maximum Force            0.102571     0.000450     NO 
 RMS     Force            0.058511     0.000300     NO 
 Maximum Displacement     0.178225     0.001800     NO 
 RMS     Displacement     0.096504     0.001200     NO 
 Predicted change in Energy=-4.542220D-02
 GradGradGradGradGradGradGradGradGradGradGradGradGradGradGradGradGradGrad

 Leave Link  103 at Tue Jan  9 18:55:01 2018, MaxMem=  4194304000 cpu:         1.7
 (Enter /home/chemsoft/gaussian/g09e01/g09/l9999.exe)
 1\1\GINC-LENOX07\Freq\RBP86\CC-pVTZ\H2O1\MARTIN\09-Jan-2018\0\\#p BP86
 /cc-pVTZ pop=nbo freq\\Water BP86/cc-pVTZ\\0,1\O,0.,0.,0.\H,0.,0.,1.2\
 H,1.1346222907,0.,-0.3906817853\\Version=ES64L-G09RevE.01\State=1-A1\H
 F=-76.4006007\RMSD=2.354e-09\RMSF=5.851e-02\ZeroPoint=0.0103214\Therma
 l=0.0131697\Dipole=0.5799656,0.,0.4136854\DipoleDeriv=-0.2659429,0.,0.
 0188776,0.,-0.5409584,0.,0.0188776,0.,-0.278943,0.2290685,0.,-0.029550
 4,0.,0.2704792,0.,-0.0555049,0.,0.0433745,0.0368744,0.,0.0106728,0.,0.
 2704792,0.,0.0366273,0.,0.2355685\Polar=11.5597177,0.,5.8373675,-2.382
 6263,0.,13.2005258\PG=C02V [C2(O1),SGV(H2)]\NImag=0\\0.15368753,0.,0.0
 7388244,0.01638423,0.,0.14240444,-0.07326961,0.,-0.02596843,0.06935513
 ,0.,-0.03694122,0.,0.,0.04328723,0.00712283,0.,-0.07477638,0.00188302,
 0.,0.07605421,-0.08041792,0.,0.00958420,0.00391448,0.,-0.00900586,0.07
 650344,0.,-0.03694122,0.,0.,-0.00634601,0.,0.,0.04328723,-0.02350707,0
 .,-0.06762806,0.02408541,0.,-0.00127783,-0.00057834,0.,0.06890589\\-0.
 07892911,0.,-0.05629959,-0.01361942,0.,0.10257078,0.09254853,0.,-0.046
 27119\\\@


 TWO ROADS DIVERGED IN A WOOD, AND I--
 I TOOK THE ONE LESS TRAVELED BY,
 AND THAT HAS MADE ALL THE DIFFERENCE.

                       -- ROBERT FROST
 Job cpu time:       0 days  0 hours  3 minutes 13.9 seconds.
 File lengths (MBytes):  RWF=      5 Int=      0 D2E=      0 Chk=      1 Scr=      1
 Normal termination of Gaussian 09 at Tue Jan  9 18:55:01 2018.
