Water CCSD(T)/def2-SVP                                                  
SP        RCCSD(T)-FC                                                 def2SVP             
Number of atoms                            I                3
Info1-9                                    I   N=           9
          21          20           0           0           0         111
           1          17         301
Full Title                                 C   N=           2
Water CCSD(T)/def2-SVP  
Route                                      C   N=          11
#p CCSD-T/def2SVP scf(xqc) gfinput gfoldprint iop(6/7=3) scr
f(pcm,solvent=toluene) pop=full pop=nbo6 pop=allorbitals sym
metry=loose 
Charge                                     I                0
Multiplicity                               I                1
Number of electrons                        I               10
Number of alpha electrons                  I                5
Number of beta electrons                   I                5
Number of basis functions                  I               24
Number of independent functions            I               24
Number of point charges in /Mol/           I                0
Number of translation vectors              I                0
Atomic numbers                             I   N=           3
           8           1           1
Nuclear charges                            R   N=           3
  8.00000000E+00  1.00000000E+00  1.00000000E+00
Current cartesian coordinates              R   N=           9
  1.23259516E-32 -1.38777878E-17  2.63368692E-01 -1.97215226E-31  1.84614644E+00
 -1.05347477E+00 -2.26087733E-16 -1.84614644E+00 -1.05347477E+00
Number of symbols in /Mol/                 I                0
Force Field                                I                0
Atom Types                                 C   N=           3
                                    
Int Atom Types                             I   N=           3
           0           0           0
MM charges                                 R   N=           3
  0.00000000E+00  0.00000000E+00  0.00000000E+00
Integer atomic weights                     I   N=           3
          16           1           1
Real atomic weights                        R   N=           3
  1.59949146E+01  1.00782504E+00  1.00782504E+00
Atom fragment info                         I   N=           3
           0           0           0
Atom residue num                           I   N=           3
           0           0           0
Nuclear spins                              I   N=           3
           0           1           1
Nuclear ZEff                               R   N=           3
 -5.60000000E+00 -1.00000000E+00 -1.00000000E+00
Nuclear ZNuc                               R   N=           3
  8.00000000E+00  1.00000000E+00  1.00000000E+00
Nuclear QMom                               R   N=           3
  0.00000000E+00  0.00000000E+00  0.00000000E+00
Nuclear GFac                               R   N=           3
  0.00000000E+00  2.79284600E+00  2.79284600E+00
MicOpt                                     I   N=           3
          -1          -1          -1
Number of residues                         I                0
Number of secondary structures             I                0
SymInf integers                            I   N=          26
           2           4           1           1           1          -1
          -1           1          -1           1           1           1
          -1           1           0           0           0           0
           0           0           0           0           0           0
           0           0
RotTr to input orientation                 R   N=          12
  2.27639202E-16 -1.00000000E+00 -2.13693190E-16 -5.80702956E-01 -3.06161700E-16
  8.14115518E-01 -8.14115518E-01 -6.12323400E-17 -5.80702956E-01  2.14412539E-01
  0.00000000E+00  1.52938978E-01
Number of contracted shells                I               12
Number of primitive shells                 I               22
Pure/Cartesian d shells                    I                0
Pure/Cartesian f shells                    I                0
Highest angular momentum                   I                2
Largest degree of contraction              I                5
Shell types                                I   N=          12
           0           0           0           1           1          -2
           0           0           1           0           0           1
Number of primitives per shell             I   N=          12
           5           1           1           3           1           1
           3           1           1           3           1           1
Shell to atom map                          I   N=          12
           1           1           1           1           1           1
           2           2           2           3           3           3
Primitive exponents                        R   N=          22
  2.26617678E+03  3.40870102E+02  7.73631352E+01  2.14796449E+01  6.65894331E+00
  8.09759757E-01  2.55307722E-01  1.77215043E+01  3.86355054E+00  1.04809209E+00
  2.76415444E-01  1.20000000E+00  1.30107010E+01  1.96225720E+00  4.44537960E-01
  1.21949620E-01  8.00000000E-01  1.30107010E+01  1.96225720E+00  4.44537960E-01
  1.21949620E-01  8.00000000E-01
Contraction coefficients                   R   N=          22
 -5.38935039E-03 -4.02347214E-02 -1.80081842E-01 -4.68288577E-01 -4.46926172E-01
  1.00000000E+00  1.00000000E+00  6.26302488E-02  3.33311385E-01  7.41486383E-01
  1.00000000E+00  1.00000000E+00  3.34854848E-02  2.34721871E-01  8.13770285E-01
  1.00000000E+00  1.00000000E+00  3.34854848E-02  2.34721871E-01  8.13770285E-01
  1.00000000E+00  1.00000000E+00
Coordinates of each shell                  R   N=          36
  6.49253953E-33  7.30994965E-18  2.63368692E-01  6.49253953E-33  7.30994965E-18
  2.63368692E-01  6.49253953E-33  7.30994965E-18  2.63368692E-01  6.49253953E-33
  7.30994965E-18  2.63368692E-01  6.49253953E-33  7.30994965E-18  2.63368692E-01
  6.49253953E-33  7.30994965E-18  2.63368692E-01 -1.29977284E-31  1.84614644E+00
 -1.05347477E+00 -1.29977284E-31  1.84614644E+00 -1.05347477E+00 -1.29977284E-31
  1.84614644E+00 -1.05347477E+00 -2.26087733E-16 -1.84614644E+00 -1.05347477E+00
 -2.26087733E-16 -1.84614644E+00 -1.05347477E+00 -2.26087733E-16 -1.84614644E+00
 -1.05347477E+00
Constraint Structure                       R   N=           9
  6.49253953E-33  7.30994965E-18  2.63368692E-01 -1.29977284E-31  1.84614644E+00
 -1.05347477E+00 -2.26087733E-16 -1.84614644E+00 -1.05347477E+00
Num ILSW                                   I              100
ILSW                                       I   N=         100
           0           0           0           0           2           0
           0           0           0           0           0          -1
           0           0           0           0           0           0
           0           0           0           0           0           0
           1           0           0           0           0           0
           0           0      100000           0          -1           0
           0           0           0           0           0           0
           0           0           0           1           4           0
           0           0           1           0           0           0
           0           0           4          41           0           0
           0           0           0           0           0           0
           0           0           0           3           0           0
           0           0           0           0           0           0
           0           0           0           0           0           0
           0           0           0           0           0           0
           0           0           0           0           0           0
           0           0           0           0
Num RLSW                                   I               41
RLSW                                       R   N=          41
  1.00000000E+00  1.00000000E+00  1.00000000E+00  1.00000000E+00  1.00000000E+00
  0.00000000E+00  0.00000000E+00  1.00000000E+00  0.00000000E+00  0.00000000E+00
  0.00000000E+00  0.00000000E+00  1.00000000E+00  0.00000000E+00  0.00000000E+00
  0.00000000E+00  0.00000000E+00  1.00000000E+00  0.00000000E+00  0.00000000E+00
  0.00000000E+00  0.00000000E+00  1.00000000E+00  0.00000000E+00  0.00000000E+00
  0.00000000E+00  0.00000000E+00  1.00000000E+00  0.00000000E+00  0.00000000E+00
  0.00000000E+00  0.00000000E+00  1.00000000E+00  0.00000000E+00  0.00000000E+00
  0.00000000E+00  0.00000000E+00  0.00000000E+00  1.00000000E+00  1.00000000E+00
  0.00000000E+00
ECP-MxAtEC                                 I           250000
ECP-MaxLECP                                I               10
ECP-MaxAtL                                 I          2250000
ECP-MxTECP                                 I         11250000
ECP-LenNCZ                                 I                0
ECP-KFirst                                 I   N=          30
           0           0           0           0           0           0
           0           0           0           0           0           0
           0           0           0           0           0           0
           0           0           0           0           0           0
           0           0           0           0           0           0
ECP-KLast                                  I   N=          30
           0           0           0           0           0           0
           0           0           0           0           0           0
           0           0           0           0           0           0
           0           0           0           0           0           0
           0           0           0           0           0           0
ECP-LMax                                   I   N=           3
           0           0           0
ECP-LPSkip                                 I   N=           3
           1           1           1
ECP-RNFroz                                 R   N=           3
  0.00000000E+00  0.00000000E+00  0.00000000E+00
ECP-NLP                                    I                0
ECP-CLP1                                   R      0.000000000000000E+00
ECP-CLP2                                   R      0.000000000000000E+00
ECP-ZLP                                    R      0.000000000000000E+00
MxBond                                     I                1
NBond                                      I   N=           3
           0           0           0
IBond                                      I   N=           3
           0           0           0
RBond                                      R   N=           3
  0.00000000E+00  0.00000000E+00  0.00000000E+00
Virial Ratio                               R      2.009227153495882E+00
SCF Energy                                 R     -7.587804851926001E+01
MP2 Energy                                 R     -7.609605285497167E+01
MP3 Energy                                 R     -7.610014933754023E+01
MP4D Energy                                R     -7.610590018471883E+01
MP4DQ Energy                               R     -7.610362359670064E+01
MP4SDQ Energy                              R     -7.610531633403851E+01
Cluster Energy                             R     -7.610626911415270E+01
Cluster Energy with triples                R     -7.611069463912774E+01
Total Energy                               R     -7.611069463912774E+01
Post-SCF wavefunction norm                 R      1.039901660075458E+00
RMS Density                                R      7.511379880405007E-09
Job Status                                 I                1
Nuclear derivative order                   I                0
External E-field                           R   N=          35
  0.00000000E+00  0.00000000E+00  0.00000000E+00  0.00000000E+00  0.00000000E+00
  0.00000000E+00  0.00000000E+00  0.00000000E+00  0.00000000E+00  0.00000000E+00
  0.00000000E+00  0.00000000E+00  0.00000000E+00  0.00000000E+00  0.00000000E+00
  0.00000000E+00  0.00000000E+00  0.00000000E+00  0.00000000E+00  0.00000000E+00
  0.00000000E+00  0.00000000E+00  0.00000000E+00  0.00000000E+00  0.00000000E+00
  0.00000000E+00  0.00000000E+00  0.00000000E+00  0.00000000E+00  0.00000000E+00
  0.00000000E+00  0.00000000E+00  0.00000000E+00  0.00000000E+00  0.00000000E+00
IOpCl                                      I                0
IROHF                                      I                0
Alpha Orbital Energies                     R   N=          24
 -2.05773574E+01 -1.22575676E+00 -5.98672350E-01 -5.19731444E-01 -4.87246275E-01
  1.31912035E-01  2.11025810E-01  6.79365480E-01  6.83992170E-01  1.17729598E+00
  1.18197870E+00  1.29956940E+00  1.35200575E+00  1.57181748E+00  1.75759203E+00
  1.79509494E+00  1.84036676E+00  2.08426695E+00  2.19359339E+00  3.12750794E+00
  3.17958475E+00  3.22841618E+00  3.66188438E+00  3.92119318E+00
Alpha MO coefficients                      R   N=         576
  9.90780715E-01 -3.12719491E-02  1.22349714E-02  0.00000000E+00  0.00000000E+00
  1.62268438E-03  0.00000000E+00  0.00000000E+00 -1.57457266E-03  6.35745409E-05
  0.00000000E+00  0.00000000E+00 -1.21933047E-04  0.00000000E+00 -4.76886340E-04
 -1.73443036E-03  0.00000000E+00 -4.05860519E-04  4.44338724E-04 -4.76886340E-04
 -1.73443036E-03  0.00000000E+00  4.05860519E-04  4.44338724E-04  2.88816090E-01
  5.82494212E-01  4.02861940E-01  0.00000000E+00  0.00000000E+00 -3.97763778E-02
  0.00000000E+00  0.00000000E+00 -1.50033052E-02  6.94222207E-04  0.00000000E+00
  0.00000000E+00 -3.71296909E-03  0.00000000E+00  1.15733849E-01  1.02701732E-02
  0.00000000E+00 -1.86785527E-02  1.13265749E-02  1.15733849E-01  1.02701732E-02
  0.00000000E+00  1.86785527E-02  1.13265749E-02  0.00000000E+00  0.00000000E+00
  0.00000000E+00  0.00000000E+00  4.65891000E-01  0.00000000E+00  0.00000000E+00
  2.89346148E-01  0.00000000E+00  0.00000000E+00  0.00000000E+00 -2.21568922E-02
  0.00000000E+00  0.00000000E+00  2.81112304E-01  1.26377516E-01  0.00000000E+00
 -2.25217118E-02  2.30900275E-02 -2.81112304E-01 -1.26377516E-01  0.00000000E+00
 -2.25217118E-02 -2.30900275E-02  7.65433522E-02  1.60479152E-01  2.32363129E-01
  0.00000000E+00  0.00000000E+00  5.31375378E-01  0.00000000E+00  0.00000000E+00
  3.99445142E-01 -1.37219369E-02  0.00000000E+00  0.00000000E+00  6.05752188E-03
  0.00000000E+00 -1.94976524E-01 -9.46642404E-02  0.00000000E+00  2.21467566E-02
  1.85838356E-03 -1.94976524E-01 -9.46642404E-02  0.00000000E+00 -2.21467566E-02
  1.85838356E-03  0.00000000E+00  0.00000000E+00  0.00000000E+00  6.39726173E-01
  0.00000000E+00  0.00000000E+00  5.03089748E-01  0.00000000E+00  0.00000000E+00
  0.00000000E+00 -1.37820144E-02  0.00000000E+00  0.00000000E+00  0.00000000E+00
  0.00000000E+00  0.00000000E+00  1.93162159E-02  0.00000000E+00  0.00000000E+00
  0.00000000E+00  0.00000000E+00  1.93162159E-02  0.00000000E+00  0.00000000E+00
  8.99370540E-02  1.20461578E-01  7.85887364E-01  0.00000000E+00  0.00000000E+00
 -2.65384383E-01  0.00000000E+00  0.00000000E+00 -4.09246335E-01  6.51838607E-03
  0.00000000E+00  0.00000000E+00  1.56185024E-03  0.00000000E+00 -1.40124421E-01
 -7.43960556E-01  0.00000000E+00 -1.42208743E-03 -5.94969869E-03 -1.40124421E-01
 -7.43960556E-01  0.00000000E+00  1.42208743E-03 -5.94969869E-03  0.00000000E+00
  0.00000000E+00  0.00000000E+00  0.00000000E+00 -3.56794848E-01  0.00000000E+00
  0.00000000E+00 -6.31915834E-01  0.00000000E+00  0.00000000E+00  0.00000000E+00
  2.73319051E-03  0.00000000E+00  0.00000000E+00  1.07912598E-01  1.00330392E+00
  0.00000000E+00 -5.62986372E-04 -6.16073282E-03 -1.07912598E-01 -1.00330392E+00
  0.00000000E+00 -5.62986372E-04  6.16073282E-03 -7.79593724E-02 -3.18151481E-01
  4.77376083E-01  0.00000000E+00  0.00000000E+00  2.67686279E-01  0.00000000E+00
  0.00000000E+00  5.08904278E-02 -8.52166775E-03  0.00000000E+00  0.00000000E+00
 -6.13194664E-02  0.00000000E+00  8.97732847E-01 -7.35162519E-01  0.00000000E+00
  1.07776227E-01 -1.12317536E-02  8.97732847E-01 -7.35162519E-01  0.00000000E+00
 -1.07776227E-01 -1.12317536E-02  0.00000000E+00  0.00000000E+00  0.00000000E+00
  0.00000000E+00 -2.82102022E-01  0.00000000E+00  0.00000000E+00 -1.48679041E-01
  0.00000000E+00  0.00000000E+00  0.00000000E+00 -7.23017401E-02  0.00000000E+00
  0.00000000E+00  9.37402516E-01 -9.23628915E-01  0.00000000E+00  1.27716291E-02
 -7.24803922E-02 -9.37402516E-01  9.23628915E-01  0.00000000E+00  1.27716291E-02
  7.24803922E-02 -1.67128864E-01 -8.17063370E-01  7.25868376E-01  0.00000000E+00
  0.00000000E+00 -7.79254273E-01  0.00000000E+00  0.00000000E+00  8.56411748E-01
 -1.66797767E-02  0.00000000E+00  0.00000000E+00 -1.54668575E-02  0.00000000E+00
  1.02933254E-01 -5.60652242E-02  0.00000000E+00 -4.10266182E-03  1.63400627E-01
  1.02933254E-01 -5.60652242E-02  0.00000000E+00  4.10266182E-03  1.63400627E-01
  0.00000000E+00  0.00000000E+00  0.00000000E+00 -9.36510850E-01  0.00000000E+00
  0.00000000E+00  9.45062213E-01  0.00000000E+00  0.00000000E+00  0.00000000E+00
 -1.02336408E-02  0.00000000E+00  0.00000000E+00  0.00000000E+00  0.00000000E+00
  0.00000000E+00  1.29265510E-01  0.00000000E+00  0.00000000E+00  0.00000000E+00
  0.00000000E+00  1.29265510E-01  0.00000000E+00  0.00000000E+00  0.00000000E+00
  0.00000000E+00  0.00000000E+00  0.00000000E+00 -8.37057433E-01  0.00000000E+00
  0.00000000E+00  1.45672702E+00  0.00000000E+00  0.00000000E+00  0.00000000E+00
  5.06623355E-02  0.00000000E+00  0.00000000E+00 -2.45432982E-01 -4.77107261E-01
  0.00000000E+00  3.12802141E-01  8.75993533E-04  2.45432982E-01  4.77107261E-01
  0.00000000E+00  3.12802141E-01 -8.75993533E-04 -2.55869552E-01 -1.55437624E+00
  2.20574800E+00  0.00000000E+00  0.00000000E+00  3.19632191E-01  0.00000000E+00
  0.00000000E+00 -6.32130320E-01  5.30762066E-02  0.00000000E+00  0.00000000E+00
  7.34132972E-02  0.00000000E+00 -3.41011507E-01 -3.77478077E-01  0.00000000E+00
 -3.67322758E-02 -3.10070444E-01 -3.41011507E-01 -3.77478077E-01  0.00000000E+00
  3.67322758E-02 -3.10070444E-01  0.00000000E+00  0.00000000E+00  0.00000000E+00
  0.00000000E+00  0.00000000E+00  0.00000000E+00  0.00000000E+00  0.00000000E+00
  0.00000000E+00  0.00000000E+00  0.00000000E+00  0.00000000E+00  0.00000000E+00
  1.71718953E-01  0.00000000E+00  0.00000000E+00  6.75997010E-01  0.00000000E+00
  0.00000000E+00  0.00000000E+00  0.00000000E+00 -6.75997010E-01  0.00000000E+00
  0.00000000E+00  9.88117640E-02  6.18449435E-01 -8.59103042E-01  0.00000000E+00
  0.00000000E+00 -4.44199264E-01  0.00000000E+00  0.00000000E+00  9.14324482E-01
  1.93302978E-01  0.00000000E+00  0.00000000E+00  2.24713105E-02  0.00000000E+00
  3.93040256E-01  5.51387723E-02  0.00000000E+00 -2.93324110E-01 -5.25531006E-01
  3.93040256E-01  5.51387723E-02  0.00000000E+00  2.93324110E-01 -5.25531006E-01
  0.00000000E+00  0.00000000E+00  0.00000000E+00  2.40339762E-01  0.00000000E+00
  0.00000000E+00 -5.94462429E-01  0.00000000E+00  0.00000000E+00  0.00000000E+00
 -1.70747310E-01  0.00000000E+00  0.00000000E+00  0.00000000E+00  0.00000000E+00
  0.00000000E+00  7.15269254E-01  0.00000000E+00  0.00000000E+00  0.00000000E+00
  0.00000000E+00  7.15269254E-01  0.00000000E+00  0.00000000E+00  0.00000000E+00
  0.00000000E+00  0.00000000E+00  0.00000000E+00 -3.73919429E-01  0.00000000E+00
  0.00000000E+00  8.15581641E-01  0.00000000E+00  0.00000000E+00  0.00000000E+00
  2.76867017E-03  0.00000000E+00  0.00000000E+00 -2.94546436E-01 -3.65359468E-02
  0.00000000E+00 -4.30778070E-01 -5.52282441E-01  2.94546436E-01  3.65359468E-02
  0.00000000E+00 -4.30778070E-01  5.52282441E-01  0.00000000E+00  0.00000000E+00
  0.00000000E+00  0.00000000E+00 -4.27739595E-01  0.00000000E+00  0.00000000E+00
 -3.45392092E-01  0.00000000E+00  0.00000000E+00  0.00000000E+00 -1.86344067E-01
  0.00000000E+00  0.00000000E+00  4.93017702E-02  3.30862799E-01  0.00000000E+00
 -5.10250113E-01  5.63674308E-01 -4.93017702E-02 -3.30862799E-01  0.00000000E+00
 -5.10250113E-01 -5.63674308E-01  4.95446682E-02 -1.14583662E-01  1.09675447E+00
  0.00000000E+00  0.00000000E+00 -2.34358241E-01  0.00000000E+00  0.00000000E+00
 -4.94677170E-01 -1.09045804E-01  0.00000000E+00  0.00000000E+00  2.51784930E-01
  0.00000000E+00 -2.83064059E-01 -2.74793231E-01  0.00000000E+00  7.66440805E-01
 -3.07347538E-01 -2.83064059E-01 -2.74793231E-01  0.00000000E+00 -7.66440805E-01
 -3.07347538E-01  0.00000000E+00  0.00000000E+00  0.00000000E+00  5.46378432E-02
  0.00000000E+00  0.00000000E+00 -1.46432064E-01  0.00000000E+00  0.00000000E+00
  0.00000000E+00  9.95331225E-01  0.00000000E+00  0.00000000E+00  0.00000000E+00
  0.00000000E+00  0.00000000E+00  2.33154353E-01  0.00000000E+00  0.00000000E+00
  0.00000000E+00  0.00000000E+00  2.33154353E-01  0.00000000E+00  0.00000000E+00
  0.00000000E+00  0.00000000E+00  0.00000000E+00  0.00000000E+00  0.00000000E+00
  0.00000000E+00  0.00000000E+00  0.00000000E+00  0.00000000E+00  0.00000000E+00
  0.00000000E+00  0.00000000E+00  0.00000000E+00  1.00289376E+00  0.00000000E+00
  0.00000000E+00 -2.50790832E-01  0.00000000E+00  0.00000000E+00  0.00000000E+00
  0.00000000E+00  2.50790832E-01  0.00000000E+00  0.00000000E+00 -5.18051270E-03
 -9.03993316E-02  2.46531391E-01  0.00000000E+00  0.00000000E+00  6.27481304E-02
  0.00000000E+00  0.00000000E+00 -2.80431313E-01  9.93688339E-01  0.00000000E+00
  0.00000000E+00  5.02196606E-02  0.00000000E+00 -1.19040062E-01 -3.09269180E-02
  0.00000000E+00  2.46002663E-01  2.06332997E-01 -1.19040062E-01 -3.09269180E-02
  0.00000000E+00 -2.46002663E-01  2.06332997E-01 -2.11284347E-03 -3.57003764E-01
  1.24233485E+00  0.00000000E+00  0.00000000E+00 -5.57525317E-02  0.00000000E+00
  0.00000000E+00 -5.87908903E-01  2.49159616E-02  0.00000000E+00  0.00000000E+00
 -1.06770774E+00  0.00000000E+00 -5.22364920E-01 -1.83875938E-01  0.00000000E+00
  4.86019987E-01 -3.47319621E-01 -5.22364920E-01 -1.83875938E-01  0.00000000E+00
 -4.86019987E-01 -3.47319621E-01  0.00000000E+00  0.00000000E+00  0.00000000E+00
  0.00000000E+00 -6.07734475E-02  0.00000000E+00  0.00000000E+00 -8.34377589E-01
  0.00000000E+00  0.00000000E+00  0.00000000E+00  1.15593804E+00  0.00000000E+00
  0.00000000E+00  4.96172987E-01  2.09478367E-01  0.00000000E+00 -4.74217435E-01
  3.72446943E-01 -4.96172987E-01 -2.09478367E-01  0.00000000E+00 -4.74217435E-01
 -3.72446943E-01
Total SCF Density                          R   N=         300
  2.14184009E+00  2.99067338E-01  7.32062001E-01  2.92522074E-01  5.43143150E-01
  4.32880122E-01  0.00000000E+00  0.00000000E+00  0.00000000E+00  8.18499153E-01
  1.70935040E-18  3.44471205E-18  5.96564522E-18 -3.23556231E-32  4.34108849E-01
  6.15858384E-02  1.24108831E-01  2.14935021E-01  8.55284707E-49  3.71314988E-18
  5.67889172E-01  0.00000000E+00  0.00000000E+00  0.00000000E+00  6.43679358E-01
 -2.15704154E-32  5.13170824E-49  5.06198589E-01  1.37010503E-18  3.07601273E-18
  4.81574767E-18 -2.15704154E-32  2.69607533E-01  4.33241051E-18 -1.54074396E-32
  1.67442387E-01  4.93632361E-02  1.10825038E-01  1.73505595E-01  5.13170824E-49
  4.33241051E-18  4.25699072E-01  3.42113883E-49  4.22233398E-18  3.19568001E-01
 -1.57366415E-03 -3.59938495E-03 -5.81603730E-03 -9.02137618E-35  5.86221363E-19
 -1.46380198E-02 -6.76901422E-35  3.11557488E-19 -1.09833535E-02  3.77555075E-04
 -2.47688638E-35 -3.29022782E-35  3.69636373E-35 -1.76334307E-02  1.76519867E-33
 -4.34697628E-34 -1.38671803E-02  1.28567620E-33 -3.41852388E-34  2.54953007E-36
  3.79887842E-04 -1.16148437E-19 -2.38921258E-19 -2.84583306E-19  1.37602101E-33
 -2.06453934E-02  5.61832968E-20  9.31246544E-34 -1.28220228E-02 -3.47114147E-20
 -3.38088470E-20 -7.22223729E-35  9.81855745E-04 -1.45902219E-03 -2.37372790E-03
 -1.79522084E-04  4.14929568E-35  7.59892441E-19  6.73261717E-03  3.05134663E-35
  4.93303060E-19  4.95109298E-03 -1.71412621E-04  6.05065383E-36 -3.26894610E-20
  1.00989157E-04 -8.33952129E-35 -1.94588830E-34 -3.56167055E-34 -4.89426018E-19
  0.00000000E+00 -3.33580852E-34 -3.84891572E-19 -3.08624285E-51 -2.77984043E-34
  2.45453033E-35  1.05440057E-20  6.05115322E-36 -1.16530673E-35  3.61449942E-36
  3.60583026E-02  7.22790867E-02  2.62714628E-03 -9.24446373E-33  2.61935385E-01
 -2.16419943E-01 -6.16297582E-33  1.62677525E-01 -1.59236130E-01  5.51154050E-03
  4.44774469E-34 -1.24571500E-02 -3.22146524E-03  2.77984043E-34  2.60869047E-01
 -1.19963343E-02 -1.83101631E-02 -3.57604758E-02 -3.85185989E-33  1.17756294E-01
 -1.01427143E-01 -2.69630192E-33  7.31336947E-02 -7.59290531E-02  2.61199249E-03
  1.94588830E-34 -5.60026598E-03 -1.22270412E-03  1.25092819E-34  1.10346026E-01
  5.00821591E-02  3.37037740E-34  4.81482486E-34  1.92592994E-34  2.47141778E-02
  1.92592994E-34 -8.66668475E-34  1.94355804E-02  1.92592994E-34 -6.74075481E-34
  3.03434275E-35 -5.32432732E-04 -4.16976064E-35 -2.04144532E-35 -1.47779770E-20
  9.62964972E-34  3.85185989E-34  7.46232395E-04 -8.20319667E-03 -1.46267281E-02
 -4.76750801E-03  1.92592994E-34 -2.09853257E-02  2.50210955E-02  0.00000000E+00
 -1.30331411E-02  1.82545868E-02 -6.33778528E-04 -1.38992021E-35  9.98022281E-04
  4.07113678E-04 -1.38992021E-35 -2.56215503E-02 -1.02677438E-02 -1.20370622E-34
  2.69351876E-03  7.70757244E-03  1.37640016E-02  1.00006044E-02 -7.70371978E-34
  2.15148720E-02  1.07538033E-03 -4.81482486E-34  1.33620210E-02  1.14337316E-03
 -3.52184268E-05  2.77984043E-35 -1.02320650E-03 -6.17044060E-05 -1.73740027E-36
  1.48784117E-02  5.71538611E-03  4.81482486E-35 -1.38122828E-03  1.33018339E-03
  3.60583026E-02  7.22790867E-02  2.62714628E-03  9.24446373E-33 -2.61935385E-01
 -2.16419943E-01  6.16297582E-33 -1.62677525E-01 -1.59236130E-01  5.51154050E-03
 -7.78355320E-34  1.24571500E-02 -3.22146524E-03  4.16976064E-34 -5.52274620E-02
 -3.17590724E-02  1.05324294E-35 -2.97029181E-04 -1.10851516E-02  2.60869047E-01
 -1.19963343E-02 -1.83101631E-02 -3.57604758E-02  3.85185989E-33 -1.17756294E-01
 -1.01427143E-01  2.69630192E-33 -7.31336947E-02 -7.59290531E-02  2.61199249E-03
 -3.33580852E-34  5.60026598E-03 -1.22270412E-03  2.08488032E-34 -3.17590724E-02
 -1.38029467E-02 -4.21297175E-35  1.11720812E-03 -5.95685514E-03  1.10346026E-01
  5.00821591E-02 -3.37037740E-34 -4.81482486E-34 -1.92592994E-34  2.47141778E-02
  1.92592994E-34  8.66668475E-34  1.94355804E-02  1.92592994E-34  6.74075481E-34
 -2.97164972E-35 -5.32432732E-04 -3.47480054E-35  1.80255278E-35 -1.47779770E-20
 -1.05324294E-35  4.21297175E-35  7.46232395E-04  1.20370622E-35  2.70833898E-35
 -9.62964972E-34 -3.85185989E-34  7.46232395E-04  8.20319667E-03  1.46267281E-02
  4.76750801E-03  1.92592994E-34 -2.09853257E-02 -2.50210955E-02  0.00000000E+00
 -1.30331411E-02 -1.82545868E-02  6.33778528E-04 -1.38992021E-35  9.98022281E-04
 -4.07113678E-04  1.38992021E-35  2.97029181E-04 -1.11720812E-03  6.01853108E-36
 -6.64608756E-04 -6.98879496E-04  2.56215503E-02  1.02677438E-02 -1.20370622E-34
  2.69351876E-03  7.70757244E-03  1.37640016E-02  1.00006044E-02  7.70371978E-34
 -2.15148720E-02  1.07538033E-03  4.81482486E-34 -1.33620210E-02  1.14337316E-03
 -3.52184268E-05 -5.55968086E-35  1.02320650E-03 -6.17044060E-05 -1.73740027E-36
 -1.10851516E-02 -5.95685514E-03 -2.70833898E-35  6.98879496E-04 -8.02414091E-04
  1.48784117E-02  5.71538611E-03 -4.81482486E-35  1.38122828E-03  1.33018339E-03
Grdnt Energy                               R      0.000000000000000E+00
Grdnt NVar                                 I                2
Grdnt IGetFC                               I                0
Internal Forces                            R   N=           2
  0.00000000E+00  0.00000000E+00
Internal Force Constants                   R   N=           3
  0.00000000E+00  0.00000000E+00  0.00000000E+00
Mulliken Charges                           R   N=           3
 -5.65693189E-01  2.82846594E-01  2.82846594E-01
NPA Charges                                R   N=           3
 -5.65693189E-01  2.82846594E-01  2.82846594E-01
ONIOM Charges                              I   N=          16
           0           0           0           0           0           0
           0           0           0           0           0           0
           0           0           0           0
ONIOM Multiplicities                       I   N=          16
           1           0           0           0           0           0
           0           0           0           0           0           0
           0           0           0           0
Atom Layers                                I   N=           3
           1           1           1
Atom Modifiers                             I   N=           3
           0           0           0
Force Field                                I                0
Atom Modified Types                        C   N=           3
                                    
Int Atom Modified Types                    I   N=           3
           0           0           0
Link Atoms                                 I   N=           3
           0           0           0
Atom Modified MM Charges                   R   N=           3
  0.00000000E+00  0.00000000E+00  0.00000000E+00
Link Distances                             R   N=          12
  0.00000000E+00  0.00000000E+00  0.00000000E+00  0.00000000E+00  0.00000000E+00
  0.00000000E+00  0.00000000E+00  0.00000000E+00  0.00000000E+00  0.00000000E+00
  0.00000000E+00  0.00000000E+00
Cartesian Gradient                         R   N=           9
  0.00000000E+00  0.00000000E+00 -0.00000000E+00  0.00000000E+00  0.00000000E+00
 -0.00000000E+00  0.00000000E+00  0.00000000E+00 -0.00000000E+00
Gaussian Version                           C   N=           2
ES64L-G09RevE.01        
