Water MP4/def2-SVP                                                      
FOpt      RMP4SDTQ-FC                                                 def2SVP             
Number of atoms                            I                3
Info1-9                                    I   N=           9
          20          20           0           0           0         101
           2           4         601
Full Title                                 C   N=           2
Water MP4/def2-SVP      
Route                                      C   N=          11
#p MP4/def2SVP opt scf(xqc) gfinput gfoldprint iop(6/7=3) sc
rf(pcm,solvent=toluene) pop=full pop=nbo6 pop=allorbitals sy
mmetry=loose
Charge                                     I                0
Multiplicity                               I                1
Number of electrons                        I               10
Number of alpha electrons                  I                5
Number of beta electrons                   I                5
Number of basis functions                  I               24
Number of independent functions            I               24
Number of point charges in /Mol/           I                0
Number of translation vectors              I                0
Atomic numbers                             I   N=           3
           8           1           1
Nuclear charges                            R   N=           3
  8.00000000E+00  1.00000000E+00  1.00000000E+00
Current cartesian coordinates              R   N=           9
 -1.76330521E-32  0.00000000E+00  2.28890103E-01  8.73462239E-32  1.41727351E+00
 -9.15560411E-01 -1.73565947E-16 -1.41727351E+00 -9.15560411E-01
Number of symbols in /Mol/                 I                0
Force Field                                I                0
Atom Types                                 C   N=           3
                                    
Int Atom Types                             I   N=           3
           0           0           0
MM charges                                 R   N=           3
  0.00000000E+00  0.00000000E+00  0.00000000E+00
Integer atomic weights                     I   N=           3
          16           1           1
Real atomic weights                        R   N=           3
  1.59949146E+01  1.00782504E+00  1.00782504E+00
Atom fragment info                         I   N=           3
           0           0           0
Atom residue num                           I   N=           3
           0           0           0
Nuclear spins                              I   N=           3
           0           1           1
Nuclear ZEff                               R   N=           3
 -5.60000000E+00 -1.00000000E+00 -1.00000000E+00
Nuclear ZNuc                               R   N=           3
  8.00000000E+00  1.00000000E+00  1.00000000E+00
Nuclear QMom                               R   N=           3
  0.00000000E+00  0.00000000E+00  0.00000000E+00
Nuclear GFac                               R   N=           3
  0.00000000E+00  2.79284600E+00  2.79284600E+00
MicOpt                                     I   N=           3
          -1          -1          -1
Number of residues                         I                0
Number of secondary structures             I                0
SymInf integers                            I   N=          26
           2           4           1           1           1          -1
          -1           1          -1           1           1           1
          -1           1           0           0           0           0
           0           0           0           0           0           0
           0           0
RotTr to input orientation                 R   N=          12
  2.39915855E-16 -1.00000000E+00 -1.99811832E-16 -6.27978516E-01 -3.06161700E-16
  7.78230675E-01 -7.78230675E-01 -6.12323400E-17 -6.27978516E-01  1.78053098E-01
  0.00000000E+00  1.43676578E-01
Number of contracted shells                I               12
Number of primitive shells                 I               22
Pure/Cartesian d shells                    I                0
Pure/Cartesian f shells                    I                0
Highest angular momentum                   I                2
Largest degree of contraction              I                5
Shell types                                I   N=          12
           0           0           0           1           1          -2
           0           0           1           0           0           1
Number of primitives per shell             I   N=          12
           5           1           1           3           1           1
           3           1           1           3           1           1
Shell to atom map                          I   N=          12
           1           1           1           1           1           1
           2           2           2           3           3           3
Primitive exponents                        R   N=          22
  2.26617678E+03  3.40870102E+02  7.73631352E+01  2.14796449E+01  6.65894331E+00
  8.09759757E-01  2.55307722E-01  1.77215043E+01  3.86355054E+00  1.04809209E+00
  2.76415444E-01  1.20000000E+00  1.30107010E+01  1.96225720E+00  4.44537960E-01
  1.21949620E-01  8.00000000E-01  1.30107010E+01  1.96225720E+00  4.44537960E-01
  1.21949620E-01  8.00000000E-01
Contraction coefficients                   R   N=          22
 -5.38935039E-03 -4.02347214E-02 -1.80081842E-01 -4.68288577E-01 -4.46926172E-01
  1.00000000E+00  1.00000000E+00  6.26302488E-02  3.33311385E-01  7.41486383E-01
  1.00000000E+00  1.00000000E+00  3.34854848E-02  2.34721871E-01  8.13770285E-01
  1.00000000E+00  1.00000000E+00  3.34854848E-02  2.34721871E-01  8.13770285E-01
  1.00000000E+00  1.00000000E+00
Coordinates of each shell                  R   N=          36
 -1.76330521E-32  0.00000000E+00  2.28890103E-01 -1.76330521E-32  0.00000000E+00
  2.28890103E-01 -1.76330521E-32  0.00000000E+00  2.28890103E-01 -1.76330521E-32
  0.00000000E+00  2.28890103E-01 -1.76330521E-32  0.00000000E+00  2.28890103E-01
 -1.76330521E-32  0.00000000E+00  2.28890103E-01  8.73462239E-32  1.41727351E+00
 -9.15560411E-01  8.73462239E-32  1.41727351E+00 -9.15560411E-01  8.73462239E-32
  1.41727351E+00 -9.15560411E-01 -1.73565947E-16 -1.41727351E+00 -9.15560411E-01
 -1.73565947E-16 -1.41727351E+00 -9.15560411E-01 -1.73565947E-16 -1.41727351E+00
 -9.15560411E-01
Constraint Structure                       R   N=           9
  6.49253953E-33  7.30994965E-18  2.63368692E-01 -1.29977284E-31  1.84614644E+00
 -1.05347477E+00 -2.26087733E-16 -1.84614644E+00 -1.05347477E+00
Num ILSW                                   I              100
ILSW                                       I   N=         100
           0           0           0           0           2           0
           0           0           0           0           0          -1
           0           0           0           0           0           0
           0           0           0           0           1           0
           1           0           0           0           0           0
           0           0      100000           0          -1           0
           0           0           0           0           0           0
           0           0           0           1           4           0
           0           0           1           0           0           0
           0           0           4          41           0           0
           0           0           0           0           0           0
           0           0           0           3           0           0
           0           0           0           0           0           0
           0           0           0           0           0           0
           0           0           0           0           0           0
           0           0           0           0           0           0
           0           0           0           0
Num RLSW                                   I               41
RLSW                                       R   N=          41
  1.00000000E+00  1.00000000E+00  1.00000000E+00  1.00000000E+00  1.00000000E+00
  0.00000000E+00  0.00000000E+00  1.00000000E+00  0.00000000E+00  0.00000000E+00
  0.00000000E+00  0.00000000E+00  1.00000000E+00  0.00000000E+00  0.00000000E+00
  0.00000000E+00  0.00000000E+00  1.00000000E+00  0.00000000E+00  0.00000000E+00
  0.00000000E+00  0.00000000E+00  1.00000000E+00  0.00000000E+00  0.00000000E+00
  0.00000000E+00  0.00000000E+00  1.00000000E+00  0.00000000E+00  0.00000000E+00
  0.00000000E+00  0.00000000E+00  1.00000000E+00  0.00000000E+00  0.00000000E+00
  0.00000000E+00  0.00000000E+00  0.00000000E+00  1.00000000E+00  1.00000000E+00
  0.00000000E+00
ECP-MxAtEC                                 I           250000
ECP-MaxLECP                                I               10
ECP-MaxAtL                                 I          2250000
ECP-MxTECP                                 I         11250000
ECP-LenNCZ                                 I                0
ECP-KFirst                                 I   N=          30
           0           0           0           0           0           0
           0           0           0           0           0           0
           0           0           0           0           0           0
           0           0           0           0           0           0
           0           0           0           0           0           0
ECP-KLast                                  I   N=          30
           0           0           0           0           0           0
           0           0           0           0           0           0
           0           0           0           0           0           0
           0           0           0           0           0           0
           0           0           0           0           0           0
ECP-LMax                                   I   N=           3
           0           0           0
ECP-LPSkip                                 I   N=           3
           1           1           1
ECP-RNFroz                                 R   N=           3
  0.00000000E+00  0.00000000E+00  0.00000000E+00
ECP-NLP                                    I                0
ECP-CLP1                                   R      0.000000000000000E+00
ECP-CLP2                                   R      0.000000000000000E+00
ECP-ZLP                                    R      0.000000000000000E+00
MxBond                                     I                1
NBond                                      I   N=           3
           0           0           0
IBond                                      I   N=           3
           0           0           0
RBond                                      R   N=           3
  0.00000000E+00  0.00000000E+00  0.00000000E+00
Virial Ratio                               R      2.002866449663284E+00
SCF Energy                                 R     -7.596404643766991E+01
MP2 Energy                                 R     -7.616558023355705E+01
MP3 Energy                                 R     -7.617241902190571E+01
MP4D Energy                                R     -7.617582136503721E+01
MP4DQ Energy                               R     -7.617408569118329E+01
MP4SDQ Energy                              R     -7.617477950599435E+01
MP4 Energy                                 R     -7.617772339154705E+01
Total Energy                               R     -7.617772339154705E+01
Post-SCF wavefunction norm                 R      1.024840500834448E+00
RMS Force                                  R      8.787630260467984E-06
RMS Density                                R      1.703548492189210E-09
Job Status                                 I                1
Nuclear derivative order                   I                0
External E-field                           R   N=          35
  0.00000000E+00  0.00000000E+00  0.00000000E+00  0.00000000E+00  0.00000000E+00
  0.00000000E+00  0.00000000E+00  0.00000000E+00  0.00000000E+00  0.00000000E+00
  0.00000000E+00  0.00000000E+00  0.00000000E+00  0.00000000E+00  0.00000000E+00
  0.00000000E+00  0.00000000E+00  0.00000000E+00  0.00000000E+00  0.00000000E+00
  0.00000000E+00  0.00000000E+00  0.00000000E+00  0.00000000E+00  0.00000000E+00
  0.00000000E+00  0.00000000E+00  0.00000000E+00  0.00000000E+00  0.00000000E+00
  0.00000000E+00  0.00000000E+00  0.00000000E+00  0.00000000E+00  0.00000000E+00
IOpCl                                      I                0
IROHF                                      I                0
Alpha Orbital Energies                     R   N=          24
 -2.05483046E+01 -1.31762249E+00 -6.95518218E-01 -5.74398222E-01 -5.00046965E-01
  1.81053009E-01  2.61648918E-01  7.83042226E-01  8.75958245E-01  1.18014719E+00
  1.19858930E+00  1.27003682E+00  1.34649305E+00  1.60662447E+00  1.63380623E+00
  1.79530486E+00  2.07142033E+00  2.54410747E+00  2.59379811E+00  3.33246088E+00
  3.36793181E+00  3.56993247E+00  3.87758633E+00  4.23913410E+00
Alpha MO coefficients                      R   N=         576
  9.90352262E-01 -3.31949894E-02  1.04474046E-02  0.00000000E+00  0.00000000E+00
  2.73532247E-03  0.00000000E+00  0.00000000E+00 -1.98158204E-04 -1.50529786E-04
  0.00000000E+00  0.00000000E+00  8.06130555E-04  0.00000000E+00  1.67761362E-03
 -1.74696762E-03  0.00000000E+00 -1.85452528E-03  1.52109206E-03  1.67761362E-03
 -1.74696762E-03  0.00000000E+00  1.85452528E-03  1.52109206E-03  2.78673087E-01
  5.51192112E-01  2.93378761E-01  0.00000000E+00  0.00000000E+00 -8.47243626E-02
  0.00000000E+00  0.00000000E+00  6.71634085E-03  1.86499066E-03  0.00000000E+00
  0.00000000E+00 -3.59587067E-03  0.00000000E+00  1.91813246E-01  5.68773699E-03
  0.00000000E+00 -3.16012317E-02  1.79266218E-02  1.91813246E-01  5.68773699E-03
  0.00000000E+00  3.16012317E-02  1.79266218E-02  0.00000000E+00  0.00000000E+00
  0.00000000E+00  0.00000000E+00  4.93412224E-01  0.00000000E+00  0.00000000E+00
  2.36945247E-01  0.00000000E+00  0.00000000E+00  0.00000000E+00 -2.59102549E-02
  0.00000000E+00  0.00000000E+00  3.21243987E-01  8.33428098E-02  0.00000000E+00
 -2.08426501E-02  3.11133654E-02 -3.21243987E-01 -8.33428098E-02  0.00000000E+00
 -2.08426501E-02 -3.11133654E-02  9.54536728E-02  1.97204925E-01  3.31121645E-01
  0.00000000E+00  0.00000000E+00  5.44793990E-01  0.00000000E+00  0.00000000E+00
  3.59334837E-01 -1.75218576E-02  0.00000000E+00  0.00000000E+00  3.72550409E-03
  0.00000000E+00 -2.06362966E-01 -4.95135660E-02  0.00000000E+00  3.06591556E-02
  5.12736968E-03 -2.06362966E-01 -4.95135660E-02  0.00000000E+00 -3.06591556E-02
  5.12736968E-03  0.00000000E+00  0.00000000E+00  0.00000000E+00  6.31656318E-01
  0.00000000E+00  0.00000000E+00  4.99103507E-01  0.00000000E+00  0.00000000E+00
  0.00000000E+00 -1.78897320E-02  0.00000000E+00  0.00000000E+00  0.00000000E+00
  0.00000000E+00  0.00000000E+00  2.80580544E-02  0.00000000E+00  0.00000000E+00
  0.00000000E+00  0.00000000E+00  2.80580544E-02  0.00000000E+00  0.00000000E+00
  8.80119943E-02  9.53218570E-02  1.08382531E+00  0.00000000E+00  0.00000000E+00
 -1.86790735E-01  0.00000000E+00  0.00000000E+00 -3.76032933E-01  8.43416161E-03
  0.00000000E+00  0.00000000E+00 -9.14908835E-03  0.00000000E+00 -6.84393976E-02
 -8.90493011E-01  0.00000000E+00  1.52514546E-02 -1.16635782E-02 -6.84393976E-02
 -8.90493011E-01  0.00000000E+00 -1.52514546E-02 -1.16635782E-02  0.00000000E+00
  0.00000000E+00  0.00000000E+00  0.00000000E+00 -2.86358243E-01  0.00000000E+00
  0.00000000E+00 -6.51761392E-01  0.00000000E+00  0.00000000E+00  0.00000000E+00
  1.73381866E-02  0.00000000E+00  0.00000000E+00  3.16615222E-02  1.42833445E+00
  0.00000000E+00 -1.39023267E-02  1.11253403E-02 -3.16615222E-02 -1.42833445E+00
  0.00000000E+00 -1.39023267E-02 -1.11253403E-02  0.00000000E+00  0.00000000E+00
  0.00000000E+00  0.00000000E+00 -2.58484030E-01  0.00000000E+00  0.00000000E+00
 -5.17926321E-01  0.00000000E+00  0.00000000E+00  0.00000000E+00 -1.06982633E-01
  0.00000000E+00  0.00000000E+00  9.73456357E-01 -6.79862375E-01  0.00000000E+00
  5.25220007E-02 -1.15187909E-01 -9.73456357E-01  6.79862375E-01  0.00000000E+00
  5.25220007E-02  1.15187909E-01 -1.16247497E-01 -4.22097334E-01  4.44537405E-01
  0.00000000E+00  0.00000000E+00  3.49119492E-01  0.00000000E+00  0.00000000E+00
  2.71558389E-02  5.35557359E-03  0.00000000E+00  0.00000000E+00 -1.03222228E-01
  0.00000000E+00  8.17931150E-01 -5.78596122E-01  0.00000000E+00  2.43329987E-01
 -6.30238947E-02  8.17931150E-01 -5.78596122E-01  0.00000000E+00 -2.43329987E-01
 -6.30238947E-02 -1.46502472E-01 -6.54022398E-01  1.57702145E-01  0.00000000E+00
  0.00000000E+00 -7.79242778E-01  0.00000000E+00  0.00000000E+00  1.15885033E+00
 -4.30847681E-03  0.00000000E+00  0.00000000E+00 -7.69568752E-03  0.00000000E+00
  3.79010371E-01 -6.57161804E-03  0.00000000E+00 -6.29405548E-02  1.30509746E-01
  3.79010371E-01 -6.57161804E-03  0.00000000E+00  6.29405548E-02  1.30509746E-01
  0.00000000E+00  0.00000000E+00  0.00000000E+00 -9.68224786E-01  0.00000000E+00
  0.00000000E+00  1.03195030E+00  0.00000000E+00  0.00000000E+00  0.00000000E+00
  4.12021967E-03  0.00000000E+00  0.00000000E+00  0.00000000E+00  0.00000000E+00
  0.00000000E+00  1.31090907E-03  0.00000000E+00  0.00000000E+00  0.00000000E+00
  0.00000000E+00  1.31090907E-03  0.00000000E+00  0.00000000E+00  0.00000000E+00
  0.00000000E+00  0.00000000E+00  0.00000000E+00 -7.78482984E-01  0.00000000E+00
  0.00000000E+00  1.71107614E+00  0.00000000E+00  0.00000000E+00  0.00000000E+00
 -4.59237364E-02  0.00000000E+00  0.00000000E+00 -3.23311877E-01 -8.04910398E-01
  0.00000000E+00  2.50267175E-01 -1.78958862E-01  3.23311877E-01  8.04910398E-01
  0.00000000E+00  2.50267175E-01  1.78958862E-01 -2.35465479E-01 -1.49104972E+00
  2.73098669E+00  0.00000000E+00  0.00000000E+00  1.17025608E-01  0.00000000E+00
  0.00000000E+00 -6.67925698E-01  4.37775059E-02  0.00000000E+00  0.00000000E+00
  4.86037332E-02  0.00000000E+00 -5.52050937E-01 -4.84464632E-01  0.00000000E+00
 -3.02996148E-02 -3.39528900E-01 -5.52050937E-01 -4.84464632E-01  0.00000000E+00
  3.02996148E-02 -3.39528900E-01  0.00000000E+00  0.00000000E+00  0.00000000E+00
  0.00000000E+00  0.00000000E+00  0.00000000E+00  0.00000000E+00  0.00000000E+00
  0.00000000E+00  0.00000000E+00  0.00000000E+00  0.00000000E+00  0.00000000E+00
  1.66942391E-01  0.00000000E+00  0.00000000E+00  6.71113852E-01  0.00000000E+00
  0.00000000E+00  0.00000000E+00  0.00000000E+00 -6.71113852E-01  0.00000000E+00
  0.00000000E+00 -8.81386002E-02 -7.26444789E-01  1.74603912E+00  0.00000000E+00
  0.00000000E+00  7.26048837E-02  0.00000000E+00  0.00000000E+00 -1.19427978E+00
 -1.80044302E-01  0.00000000E+00  0.00000000E+00  2.31174799E-02  0.00000000E+00
 -7.66855100E-01 -1.84583396E-01  0.00000000E+00  4.54477954E-01  4.16704073E-01
 -7.66855100E-01 -1.84583396E-01  0.00000000E+00 -4.54477954E-01  4.16704073E-01
  0.00000000E+00  0.00000000E+00  0.00000000E+00 -2.44273930E-02  0.00000000E+00
  0.00000000E+00 -5.54641412E-01  0.00000000E+00  0.00000000E+00  0.00000000E+00
 -1.99921573E-01  0.00000000E+00  0.00000000E+00  0.00000000E+00  0.00000000E+00
  0.00000000E+00  7.35745664E-01  0.00000000E+00  0.00000000E+00  0.00000000E+00
  0.00000000E+00  7.35745664E-01  0.00000000E+00  0.00000000E+00  0.00000000E+00
  0.00000000E+00  0.00000000E+00  0.00000000E+00  1.57996665E-02  0.00000000E+00
  0.00000000E+00  7.67967108E-01  0.00000000E+00  0.00000000E+00  0.00000000E+00
  2.68255396E-02  0.00000000E+00  0.00000000E+00 -3.25247644E-01 -7.63442844E-02
  0.00000000E+00 -4.65694635E-01 -6.74006631E-01  3.25247644E-01  7.63442844E-02
  0.00000000E+00 -4.65694635E-01  6.74006631E-01  0.00000000E+00  0.00000000E+00
  0.00000000E+00  0.00000000E+00  7.74312935E-01  0.00000000E+00  0.00000000E+00
  7.31889181E-02  0.00000000E+00  0.00000000E+00  0.00000000E+00  1.66085666E-01
  0.00000000E+00  0.00000000E+00 -2.09981121E-01 -2.92776375E-01  0.00000000E+00
  6.81256845E-01 -5.16919353E-01  2.09981121E-01  2.92776375E-01  0.00000000E+00
  6.81256845E-01  5.16919353E-01  1.55511271E-01  7.78721396E-01  6.17797198E-01
  0.00000000E+00  0.00000000E+00 -6.30144395E-01  0.00000000E+00  0.00000000E+00
 -1.76560211E-01 -8.42971271E-02  0.00000000E+00  0.00000000E+00  2.80406792E-01
  0.00000000E+00 -4.04531240E-01 -1.78337846E-01  0.00000000E+00  6.91503734E-01
 -5.19510453E-01 -4.04531240E-01 -1.78337846E-01  0.00000000E+00 -6.91503734E-01
 -5.19510453E-01  0.00000000E+00  0.00000000E+00  0.00000000E+00  1.12328687E-02
  0.00000000E+00  0.00000000E+00 -2.95687181E-01  0.00000000E+00  0.00000000E+00
  0.00000000E+00  1.03261968E+00  0.00000000E+00  0.00000000E+00  0.00000000E+00
  0.00000000E+00  0.00000000E+00  4.09287412E-01  0.00000000E+00  0.00000000E+00
  0.00000000E+00  0.00000000E+00  4.09287412E-01  0.00000000E+00  0.00000000E+00
  0.00000000E+00  0.00000000E+00  0.00000000E+00  0.00000000E+00  0.00000000E+00
  0.00000000E+00  0.00000000E+00  0.00000000E+00  0.00000000E+00  0.00000000E+00
  0.00000000E+00  0.00000000E+00  0.00000000E+00  1.05286490E+00  0.00000000E+00
  0.00000000E+00 -3.76300643E-01  0.00000000E+00  0.00000000E+00  0.00000000E+00
  0.00000000E+00  3.76300643E-01  0.00000000E+00  0.00000000E+00 -3.93026283E-03
 -9.60087993E-02  4.19022550E-01  0.00000000E+00  0.00000000E+00  3.25549700E-03
  0.00000000E+00  0.00000000E+00 -4.84709535E-01  1.06020636E+00  0.00000000E+00
  0.00000000E+00  2.59975335E-01  0.00000000E+00 -2.45008810E-01 -4.04409093E-02
  0.00000000E+00  3.36145617E-01  3.36017127E-01 -2.45008810E-01 -4.04409093E-02
  0.00000000E+00 -3.36145617E-01  3.36017127E-01  7.75613943E-02  1.49992312E-01
  1.90653698E+00  0.00000000E+00  0.00000000E+00 -3.97729085E-01  0.00000000E+00
  0.00000000E+00 -9.39040965E-01  2.32915864E-01  0.00000000E+00  0.00000000E+00
 -1.11947789E+00  0.00000000E+00 -1.16466176E+00 -2.24934333E-01  0.00000000E+00
  6.16968654E-01 -4.81674010E-01 -1.16466176E+00 -2.24934333E-01  0.00000000E+00
 -6.16968654E-01 -4.81674010E-01  0.00000000E+00  0.00000000E+00  0.00000000E+00
  0.00000000E+00 -4.81791742E-01  0.00000000E+00  0.00000000E+00 -1.07078505E+00
  0.00000000E+00  0.00000000E+00  0.00000000E+00  1.33924870E+00  0.00000000E+00
  0.00000000E+00  1.04515641E+00  2.52741405E-01  0.00000000E+00 -6.05707124E-01
  5.22246252E-01 -1.04515641E+00 -2.52741405E-01  0.00000000E+00 -6.05707124E-01
 -5.22246252E-01
Total SCF Density                          R   N=         300
  2.13513539E+00  2.79103218E-01  6.87608868E-01  2.47420306E-01  4.53320153E-01
  3.91643578E-01  0.00000000E+00  0.00000000E+00  0.00000000E+00  7.97979408E-01
  0.00000000E+00  0.00000000E+00  0.00000000E+00  6.16297582E-33  4.86911245E-01
  6.22022406E-02  1.21291717E-01  3.11130661E-01  0.00000000E+00  0.00000000E+00
  6.07972382E-01  0.00000000E+00  0.00000000E+00  0.00000000E+00  6.30523767E-01
  3.08148791E-33  0.00000000E+00  4.98208622E-01  0.00000000E+00  0.00000000E+00
  0.00000000E+00  3.08148791E-33  2.33823362E-01  0.00000000E+00 -3.08148791E-33
  1.12286100E-01  7.19504939E-02  1.49142343E-01  2.41903808E-01  0.00000000E+00
  0.00000000E+00  3.90387760E-01  0.00000000E+00  0.00000000E+00  2.58333347E-01
 -2.60376094E-03 -4.84486326E-03 -1.05125806E-02  4.78455213E-34  0.00000000E+00
 -1.94084492E-02  3.09808264E-34  0.00000000E+00 -1.25673162E-02  6.21032687E-04
 -1.87600274E-34  1.01847887E-34 -6.33975408E-34 -2.26003245E-02 -9.17347342E-34
  3.27320346E-33 -1.78576560E-02 -3.89177660E-34  2.58632310E-33 -4.27973102E-35
  6.40085025E-04  1.70485037E-50  2.34923002E-51  6.07908135E-50 -2.25167075E-33
 -2.55688730E-02 -2.13219050E-49 -1.00074255E-33 -1.22786235E-02 -1.68475123E-49
  4.67900739E-51  1.24382976E-34  1.34268262E-03  3.03787769E-04 -2.54817458E-03
  3.74129869E-04 -1.15198103E-34  0.00000000E+00  4.67299023E-03 -6.48045571E-35
  0.00000000E+00  2.62878514E-03 -1.44210728E-04 -3.16867480E-35 -2.93863832E-51
  5.49190262E-05  1.11193617E-34  5.28169682E-34  5.31644482E-34  5.64307954E-50
  0.00000000E+00  0.00000000E+00  3.17450774E-50  0.00000000E+00  8.33952129E-35
 -1.59985608E-35 -3.64589967E-51 -3.30996820E-35  1.37924670E-36  1.64730694E-36
  7.08330300E-02  1.29948934E-01 -2.40795711E-02  1.07852077E-32  3.17011420E-01
 -2.57343940E-01  5.39260384E-33  1.52234472E-01 -1.45730904E-01  7.94667977E-03
 -1.00074255E-33 -1.66470272E-02 -2.91437865E-03  3.05782447E-34  3.65157017E-01
 -9.74269166E-03 -1.31425854E-02 -2.94892069E-02  3.08148791E-33  8.22447223E-02
 -5.49227232E-02  1.34815096E-33  3.94953653E-02 -3.55068044E-02  1.75688040E-03
 -2.77984043E-34 -4.31886689E-03 -4.12647287E-04  6.25464097E-35  7.61583908E-02
  1.88660388E-02 -5.77778983E-34 -8.66668475E-34  6.62038418E-35  3.54460946E-02
 -1.15555797E-33  1.54074396E-33  2.80077467E-02 -5.77778983E-34  8.66668475E-34
 -1.13850546E-34 -1.00390215E-03  1.52891224E-34  4.60411071E-35 -6.78970536E-36
 -1.54074396E-33 -2.40741243E-34  1.57450883E-03 -1.54330342E-02 -2.26213045E-02
  1.72280971E-03 -1.15555797E-33 -2.05680367E-02  3.87504904E-02 -5.77778983E-34
 -9.87713376E-03  2.16100510E-02 -1.19172440E-03  5.55968086E-35  1.08007675E-03
  4.52719525E-04 -3.47480054E-36 -3.81742726E-02 -6.86325770E-03  1.44444746E-34
  4.75295399E-03  1.39830206E-02  2.16833249E-02  1.39459293E-02  1.15555797E-33
  3.07034296E-02  2.55739851E-03  4.81482486E-34  1.47443281E-02  3.92508487E-03
 -1.13274057E-04  9.03448140E-35 -1.61231046E-03 -8.82671563E-05  5.21220081E-36
  2.47559953E-02  4.87701110E-03 -7.22223729E-35 -2.12121680E-03  2.63601783E-03
  7.08330300E-02  1.29948934E-01 -2.40795711E-02 -1.07852077E-32 -3.17011420E-01
 -2.57343940E-01 -5.39260384E-33 -1.52234472E-01 -1.45730904E-01  7.94667977E-03
  2.55745320E-33  1.66470272E-02 -2.91437865E-03 -5.55968086E-34 -4.76337791E-02
 -3.09351152E-02 -4.33334237E-34 -1.13919686E-02 -1.52239309E-02  3.65157017E-01
 -9.74269166E-03 -1.31425854E-02 -2.94892069E-02 -3.08148791E-33 -8.22447223E-02
 -5.49227232E-02 -1.34815096E-33 -3.94953653E-02 -3.55068044E-02  1.75688040E-03
  5.83766490E-34  4.31886689E-03 -4.12647287E-04 -1.56366024E-34 -3.09351152E-02
 -8.91805697E-03  3.00926554E-36  8.50824052E-05 -5.49529008E-03  7.61583908E-02
  1.88660388E-02  5.77778983E-34  8.66668475E-34 -6.62038418E-35  3.54460946E-02
 -1.15555797E-33 -1.54074396E-33  2.80077467E-02 -5.77778983E-34 -8.66668475E-34
  1.16107495E-34 -1.00390215E-03  8.33952129E-35 -4.21319565E-35  6.78970536E-36
  4.33334237E-34 -3.00926554E-36  1.57450883E-03 -1.44444746E-34 -1.50463277E-35
  1.54074396E-33  2.40741243E-34  1.57450883E-03  1.54330342E-02  2.26213045E-02
 -1.72280971E-03 -1.15555797E-33 -2.05680367E-02 -3.87504904E-02 -5.77778983E-34
 -9.87713376E-03 -2.16100510E-02  1.19172440E-03  5.55968086E-35  1.08007675E-03
 -4.52719525E-04  3.47480054E-36  1.13919686E-02 -8.50824052E-05 -1.44444746E-34
 -3.01528974E-03 -4.72723159E-04  3.81742726E-02  6.86325770E-03  1.44444746E-34
  4.75295399E-03  1.39830206E-02  2.16833249E-02  1.39459293E-02 -1.15555797E-33
 -3.07034296E-02  2.55739851E-03 -4.81482486E-34 -1.47443281E-02  3.92508487E-03
 -1.13274057E-04  2.01538431E-34  1.61231046E-03 -8.82671563E-05  5.21220081E-36
 -1.52239309E-02 -5.49529008E-03  1.80555932E-35  4.72723159E-04 -1.23614819E-03
  2.47559953E-02  4.87701110E-03  7.22223729E-35  2.12121680E-03  2.63601783E-03
Grdnt Energy                               R     -7.617772339154705E+01
Grdnt NVar                                 I                2
Grdnt IGetFC                               I                0
Internal Forces                            R   N=           2
 -1.22584381E-05  2.04342537E-06
Internal Force Constants                   R   N=           3
  1.03674859E+00  6.02194746E-02  1.36158317E-01
Mulliken Charges                           R   N=           3
 -3.71467596E-01  1.85733798E-01  1.85733798E-01
NPA Charges                                R   N=           3
 -3.71467596E-01  1.85733798E-01  1.85733798E-01
ONIOM Charges                              I   N=          16
           0           0           0           0           0           0
           0           0           0           0           0           0
           0           0           0           0
ONIOM Multiplicities                       I   N=          16
           1           0           0           0           0           0
           0           0           0           0           0           0
           0           0           0           0
Atom Layers                                I   N=           3
           1           1           1
Atom Modifiers                             I   N=           3
           0           0           0
Force Field                                I                0
Atom Modified Types                        C   N=           3
                                    
Int Atom Modified Types                    I   N=           3
           0           0           0
Link Atoms                                 I   N=           3
           0           0           0
Atom Modified MM Charges                   R   N=           3
  0.00000000E+00  0.00000000E+00  0.00000000E+00
Link Distances                             R   N=          12
  0.00000000E+00  0.00000000E+00  0.00000000E+00  0.00000000E+00  0.00000000E+00
  0.00000000E+00  0.00000000E+00  0.00000000E+00  0.00000000E+00  0.00000000E+00
  0.00000000E+00  0.00000000E+00
Cartesian Gradient                         R   N=           9
  0.00000000E+00  0.00000000E+00 -0.00000000E+00  0.00000000E+00  0.00000000E+00
 -0.00000000E+00  0.00000000E+00  0.00000000E+00 -0.00000000E+00
Gaussian Version                           C   N=           2
ES64L-G09RevE.01        
