Water BP86/cc-pVTZ                                                      
Freq      RBP86                                                       CC-pVTZ             
Number of atoms                            I                3
Info1-9                                    I   N=           9
          16          14           0           0           0         100
           6          18         402
Full Title                                 C   N=           2
Water BP86/cc-pVTZ      
Route                                      C   N=           3
#p BP86/cc-pVTZ pop=nbo freq        
Charge                                     I                0
Multiplicity                               I                1
Number of electrons                        I               10
Number of alpha electrons                  I                5
Number of beta electrons                   I                5
Number of basis functions                  I               58
Number of independent functions            I               58
Number of point charges in /Mol/           I                0
Number of translation vectors              I                0
Atomic numbers                             I   N=           3
           8           1           1
Nuclear charges                            R   N=           3
  8.00000000E+00  1.00000000E+00  1.00000000E+00
Current cartesian coordinates              R   N=           9
  1.23259516E-32 -1.38777878E-17  2.63368692E-01 -1.97215226E-31  1.84614644E+00
 -1.05347477E+00 -2.26087733E-16 -1.84614644E+00 -1.05347477E+00
Number of symbols in /Mol/                 I                0
Force Field                                I                0
Atom Types                                 C   N=           3
                                    
Int Atom Types                             I   N=           3
           0           0           0
MM charges                                 R   N=           3
  0.00000000E+00  0.00000000E+00  0.00000000E+00
Integer atomic weights                     I   N=           3
          16           1           1
Real atomic weights                        R   N=           3
  1.59949146E+01  1.00782504E+00  1.00782504E+00
Atom fragment info                         I   N=           3
           0           0           0
Atom residue num                           I   N=           3
           0           0           0
Nuclear spins                              I   N=           3
           0           1           1
Nuclear ZEff                               R   N=           3
 -5.60000000E+00 -1.00000000E+00 -1.00000000E+00
Nuclear ZNuc                               R   N=           3
  8.00000000E+00  1.00000000E+00  1.00000000E+00
Nuclear QMom                               R   N=           3
  0.00000000E+00  0.00000000E+00  0.00000000E+00
Nuclear GFac                               R   N=           3
  0.00000000E+00  2.79284600E+00  2.79284600E+00
MicOpt                                     I   N=           3
          -1          -1          -1
Number of residues                         I                0
Number of secondary structures             I                0
SymInf integers                            I   N=          26
           2           4           1           1           1          -1
          -1           1          -1           1           1           1
          -1           1           0           0           0           0
           0           0           0           0           0           0
           0           0
RotTr to input orientation                 R   N=          12
  2.27639202E-16 -1.00000000E+00 -2.13693190E-16 -5.80702956E-01 -3.06161700E-16
  8.14115518E-01 -8.14115518E-01 -6.12323400E-17 -5.80702956E-01  2.14412539E-01
  0.00000000E+00  1.52938978E-01
Number of contracted shells                I               22
Number of primitive shells                 I               39
Pure/Cartesian d shells                    I                0
Pure/Cartesian f shells                    I                0
Highest angular momentum                   I                3
Largest degree of contraction              I                7
Shell types                                I   N=          22
           0           0           0           0           1           1
           1          -2          -2          -3           0           0
           0           1           1          -2           0           0
           0           1           1          -2
Number of primitives per shell             I   N=          22
           7           6           1           1           3           1
           1           1           1           1           3           1
           1           1           1           1           3           1
           1           1           1           1
Shell to atom map                          I   N=          22
           1           1           1           1           1           1
           1           1           1           1           2           2
           2           2           2           2           3           3
           3           3           3           3
Primitive exponents                        R   N=          39
  1.53300000E+04  2.29900000E+03  5.22400000E+02  1.47300000E+02  4.75500000E+01
  1.67600000E+01  6.20700000E+00  5.22400000E+02  1.47300000E+02  4.75500000E+01
  1.67600000E+01  6.20700000E+00  6.88200000E-01  1.75200000E+00  2.38400000E-01
  3.44600000E+01  7.74900000E+00  2.28000000E+00  7.15600000E-01  2.14000000E-01
  2.31400000E+00  6.45000000E-01  1.42800000E+00  3.38700000E+01  5.09500000E+00
  1.15900000E+00  3.25800000E-01  1.02700000E-01  1.40700000E+00  3.88000000E-01
  1.05700000E+00  3.38700000E+01  5.09500000E+00  1.15900000E+00  3.25800000E-01
  1.02700000E-01  1.40700000E+00  3.88000000E-01  1.05700000E+00
Contraction coefficients                   R   N=          39
  5.19808943E-04  4.02025621E-03  2.07128267E-02  8.10105536E-02  2.35962985E-01
  4.42653446E-01  3.57064423E-01 -4.42115008E-05 -1.22591041E-03 -1.05517725E-02
 -6.74452633E-02 -1.71198607E-01  1.07329856E+00  1.00000000E+00  1.00000000E+00
  4.11634896E-02  2.57762836E-01  8.02419274E-01  1.00000000E+00  1.00000000E+00
  1.00000000E+00  1.00000000E+00  1.00000000E+00  2.54948632E-02  1.90362766E-01
  8.52162022E-01  1.00000000E+00  1.00000000E+00  1.00000000E+00  1.00000000E+00
  1.00000000E+00  2.54948632E-02  1.90362766E-01  8.52162022E-01  1.00000000E+00
  1.00000000E+00  1.00000000E+00  1.00000000E+00  1.00000000E+00
Coordinates of each shell                  R   N=          66
  6.49253953E-33  7.30994965E-18  2.63368692E-01  6.49253953E-33  7.30994965E-18
  2.63368692E-01  6.49253953E-33  7.30994965E-18  2.63368692E-01  6.49253953E-33
  7.30994965E-18  2.63368692E-01  6.49253953E-33  7.30994965E-18  2.63368692E-01
  6.49253953E-33  7.30994965E-18  2.63368692E-01  6.49253953E-33  7.30994965E-18
  2.63368692E-01  6.49253953E-33  7.30994965E-18  2.63368692E-01  6.49253953E-33
  7.30994965E-18  2.63368692E-01  6.49253953E-33  7.30994965E-18  2.63368692E-01
 -1.29977284E-31  1.84614644E+00 -1.05347477E+00 -1.29977284E-31  1.84614644E+00
 -1.05347477E+00 -1.29977284E-31  1.84614644E+00 -1.05347477E+00 -1.29977284E-31
  1.84614644E+00 -1.05347477E+00 -1.29977284E-31  1.84614644E+00 -1.05347477E+00
 -1.29977284E-31  1.84614644E+00 -1.05347477E+00 -2.26087733E-16 -1.84614644E+00
 -1.05347477E+00 -2.26087733E-16 -1.84614644E+00 -1.05347477E+00 -2.26087733E-16
 -1.84614644E+00 -1.05347477E+00 -2.26087733E-16 -1.84614644E+00 -1.05347477E+00
 -2.26087733E-16 -1.84614644E+00 -1.05347477E+00 -2.26087733E-16 -1.84614644E+00
 -1.05347477E+00
Constraint Structure                       R   N=           9
  6.49253953E-33  7.30994965E-18  2.63368692E-01 -1.29977284E-31  1.84614644E+00
 -1.05347477E+00 -2.26087733E-16 -1.84614644E+00 -1.05347477E+00
Num ILSW                                   I              100
ILSW                                       I   N=         100
           0           0           0           0           2           0
           0           0           0           0         404          -1
           0           0           0           0           2           0
           0           0           0           0           1           0
           1           0           0           0           0           0
           0           0      100000           0          -1           0
           0           0           0           0           0           0
           0           0           0           1           0           0
           0           0           1           0           0           0
           0           0           4          41           0           0
           0           0           0           0           0           0
           0           0           0           3           0           0
           0           0           0           0           0           0
           0           0           0           0           0           0
           0           0           0           0           0           0
           0           0           0           0           0           0
           0           0           0           0
Num RLSW                                   I               41
RLSW                                       R   N=          41
  1.00000000E+00  1.00000000E+00  1.00000000E+00  1.00000000E+00  0.00000000E+00
  0.00000000E+00  0.00000000E+00  1.00000000E+00  0.00000000E+00  0.00000000E+00
  0.00000000E+00  0.00000000E+00  1.00000000E+00  0.00000000E+00  0.00000000E+00
  0.00000000E+00  0.00000000E+00  1.00000000E+00  0.00000000E+00  0.00000000E+00
  0.00000000E+00  0.00000000E+00  1.00000000E+00  0.00000000E+00  0.00000000E+00
  0.00000000E+00  0.00000000E+00  1.00000000E+00  0.00000000E+00  0.00000000E+00
  0.00000000E+00  0.00000000E+00  1.00000000E+00  0.00000000E+00  0.00000000E+00
  0.00000000E+00  0.00000000E+00  0.00000000E+00  1.00000000E+00  1.00000000E+00
  0.00000000E+00
MxBond                                     I                1
NBond                                      I   N=           3
           0           0           0
IBond                                      I   N=           3
           0           0           0
RBond                                      R   N=           3
  0.00000000E+00  0.00000000E+00  0.00000000E+00
Virial Ratio                               R      2.011879365374676E+00
SCF Energy                                 R     -7.640060069693158E+01
Total Energy                               R     -7.640060069693158E+01
RMS Force                                  R      5.851111493850297E-02
RMS Density                                R      2.353919622557063E-09
Job Status                                 I                1
Nuclear derivative order                   I                2
External E-field                           R   N=          35
  0.00000000E+00  0.00000000E+00  0.00000000E+00  0.00000000E+00  0.00000000E+00
  0.00000000E+00  0.00000000E+00  0.00000000E+00  0.00000000E+00  0.00000000E+00
  0.00000000E+00  0.00000000E+00  0.00000000E+00  0.00000000E+00  0.00000000E+00
  0.00000000E+00  0.00000000E+00  0.00000000E+00  0.00000000E+00  0.00000000E+00
  0.00000000E+00  0.00000000E+00  0.00000000E+00  0.00000000E+00  0.00000000E+00
  0.00000000E+00  0.00000000E+00  0.00000000E+00  0.00000000E+00  0.00000000E+00
  0.00000000E+00  0.00000000E+00  0.00000000E+00  0.00000000E+00  0.00000000E+00
IOpCl                                      I                0
IROHF                                      I                0
Alpha Orbital Energies                     R   N=          58
 -1.87903622E+01 -8.46795216E-01 -4.14251382E-01 -3.14300756E-01 -2.39294596E-01
 -5.66637431E-02  8.41297803E-03  2.73296092E-01  2.77510072E-01  4.72409127E-01
  5.13009577E-01  5.78963546E-01  5.85439785E-01  6.22088806E-01  7.46775221E-01
  8.44517089E-01  9.43659623E-01  1.06451144E+00  1.08283305E+00  1.57851250E+00
  1.62018280E+00  1.68181864E+00  1.95511054E+00  2.00799943E+00  2.31829608E+00
  2.32331426E+00  2.99791525E+00  3.07615009E+00  3.07849395E+00  3.08044096E+00
  3.11834676E+00  3.19582280E+00  3.28313649E+00  3.35263346E+00  3.42377183E+00
  3.48724407E+00  3.62468493E+00  3.64340882E+00  3.66417002E+00  3.77349668E+00
  3.88675022E+00  4.02932949E+00  4.09057113E+00  4.63413431E+00  4.97618555E+00
  5.15169052E+00  5.29246724E+00  5.64475432E+00  5.67589246E+00  5.93074056E+00
  5.96940663E+00  6.31492632E+00  6.46032020E+00  6.48708258E+00  6.50115585E+00
  6.80623316E+00  6.94677107E+00  9.00601236E+00
Alpha MO coefficients                      R   N=        3364
  9.73167295E-01 -1.01529376E-02  5.10134762E-02 -3.14599661E-04  0.00000000E+00
  0.00000000E+00 -1.41859282E-03  0.00000000E+00  0.00000000E+00  1.18004910E-03
  0.00000000E+00  0.00000000E+00  6.94939395E-04  3.92680238E-05  0.00000000E+00
  0.00000000E+00 -2.31350978E-04  0.00000000E+00 -7.70498105E-05  0.00000000E+00
  0.00000000E+00  7.12365315E-04  0.00000000E+00 -1.02979587E-04  0.00000000E+00
  0.00000000E+00 -2.21619101E-04  0.00000000E+00  0.00000000E+00  0.00000000E+00
 -6.72442966E-06  1.40744755E-03 -8.38766499E-05  0.00000000E+00 -2.67467791E-04
  2.12133262E-04  0.00000000E+00 -7.21192352E-04  4.06377969E-04 -4.20010652E-06
  0.00000000E+00 -1.49560445E-04 -1.28958915E-04  0.00000000E+00 -6.72442966E-06
  1.40744755E-03 -8.38766499E-05  0.00000000E+00  2.67467791E-04  2.12133262E-04
  0.00000000E+00  7.21192352E-04  4.06377969E-04 -4.20010652E-06  0.00000000E+00
  1.49560445E-04 -1.28958915E-04  0.00000000E+00 -2.12737363E-01  4.92341324E-01
  1.51382526E-01  3.32944773E-01  0.00000000E+00  0.00000000E+00 -4.64264213E-02
  0.00000000E+00  0.00000000E+00 -6.24518637E-02  0.00000000E+00  0.00000000E+00
 -1.77931043E-02  8.49232913E-04  0.00000000E+00  0.00000000E+00 -3.16339123E-03
  0.00000000E+00  2.24908271E-03  0.00000000E+00  0.00000000E+00 -1.00179910E-02
  0.00000000E+00  7.49016175E-04  0.00000000E+00  0.00000000E+00  1.97648705E-03
  0.00000000E+00  0.00000000E+00  0.00000000E+00  6.12181170E-02  6.39675387E-02
  1.29310365E-02  0.00000000E+00 -6.92402342E-03  4.49318952E-03  0.00000000E+00
 -1.04573454E-02  5.23382737E-03 -2.99925688E-04  0.00000000E+00 -1.45844264E-03
 -1.37207722E-03  0.00000000E+00  6.12181170E-02  6.39675387E-02  1.29310365E-02
  0.00000000E+00  6.92402342E-03  4.49318952E-03  0.00000000E+00  1.04573454E-02
  5.23382737E-03 -2.99925688E-04  0.00000000E+00  1.45844264E-03 -1.37207722E-03
  0.00000000E+00  0.00000000E+00  0.00000000E+00  0.00000000E+00  0.00000000E+00
  0.00000000E+00  2.81592040E-01  0.00000000E+00  0.00000000E+00  3.32684044E-01
  0.00000000E+00  0.00000000E+00  1.90051456E-01  0.00000000E+00  0.00000000E+00
  0.00000000E+00 -7.86305477E-03  0.00000000E+00  0.00000000E+00  0.00000000E+00
  0.00000000E+00 -1.90457036E-02  0.00000000E+00  0.00000000E+00  0.00000000E+00
  0.00000000E+00  7.07069952E-04  0.00000000E+00  0.00000000E+00  0.00000000E+00
 -3.63211737E-03  1.31069159E-01  2.02157328E-01  1.01383695E-01  0.00000000E+00
 -4.33952357E-03  6.43277442E-03  0.00000000E+00 -7.47057554E-03  1.47527495E-02
  1.79592821E-03  0.00000000E+00 -2.53785177E-03 -6.75674549E-04  0.00000000E+00
 -1.31069159E-01 -2.02157328E-01 -1.01383695E-01  0.00000000E+00 -4.33952357E-03
 -6.43277442E-03  0.00000000E+00 -7.47057554E-03 -1.47527495E-02 -1.79592821E-03
  0.00000000E+00 -2.53785177E-03  6.75674549E-04  0.00000000E+00 -7.03822790E-02
  1.59314957E-01  5.63550037E-02  2.34602614E-01  0.00000000E+00  0.00000000E+00
  3.10346934E-01  0.00000000E+00  0.00000000E+00  3.54275015E-01  0.00000000E+00
  0.00000000E+00  2.97145168E-01 -3.44833671E-03  0.00000000E+00  0.00000000E+00
  1.36489708E-03  0.00000000E+00 -1.48498275E-02  0.00000000E+00  0.00000000E+00
  4.93509800E-03  0.00000000E+00  2.56451067E-05  0.00000000E+00  0.00000000E+00
 -3.57318898E-03  0.00000000E+00  0.00000000E+00  0.00000000E+00 -9.34519331E-02
 -1.47921908E-01 -7.40015666E-02  0.00000000E+00  5.28134992E-03  9.34368372E-05
  0.00000000E+00  9.45013039E-03  2.05111668E-02  1.84681567E-03  0.00000000E+00
 -4.11219343E-04  2.16670853E-03  0.00000000E+00 -9.34519331E-02 -1.47921908E-01
 -7.40015666E-02  0.00000000E+00 -5.28134992E-03  9.34368372E-05  0.00000000E+00
 -9.45013039E-03  2.05111668E-02  1.84681567E-03  0.00000000E+00  4.11219343E-04
  2.16670853E-03  0.00000000E+00  0.00000000E+00  0.00000000E+00  0.00000000E+00
  0.00000000E+00  3.74571768E-01  0.00000000E+00  0.00000000E+00  4.22962322E-01
  0.00000000E+00  0.00000000E+00  4.01477807E-01  0.00000000E+00  0.00000000E+00
  0.00000000E+00 -3.82823282E-03  0.00000000E+00  0.00000000E+00  0.00000000E+00
  0.00000000E+00 -1.60106934E-02  0.00000000E+00  0.00000000E+00  0.00000000E+00
  0.00000000E+00  1.44319734E-03  0.00000000E+00  0.00000000E+00  0.00000000E+00
 -3.63452885E-03  0.00000000E+00  0.00000000E+00  0.00000000E+00  0.00000000E+00
  5.09714645E-03  0.00000000E+00  0.00000000E+00  3.18660688E-02  0.00000000E+00
  0.00000000E+00  0.00000000E+00  2.15066392E-03  0.00000000E+00  0.00000000E+00
 -3.47111590E-03  0.00000000E+00  0.00000000E+00  0.00000000E+00  5.09714645E-03
  0.00000000E+00  0.00000000E+00  3.18660688E-02  0.00000000E+00  0.00000000E+00
  0.00000000E+00  2.15066392E-03  0.00000000E+00  0.00000000E+00  3.47111590E-03
 -7.92716337E-02  1.62773552E-01  6.55864371E-02  5.95760486E-01  0.00000000E+00
  0.00000000E+00 -2.01571698E-01  0.00000000E+00  0.00000000E+00 -2.42626741E-01
  0.00000000E+00  0.00000000E+00 -3.13345886E-01  2.59549561E-03  0.00000000E+00
  0.00000000E+00  3.18130358E-03  0.00000000E+00  9.41780084E-03  0.00000000E+00
  0.00000000E+00  1.43198024E-03  0.00000000E+00  2.24577751E-04  0.00000000E+00
  0.00000000E+00  2.15990216E-03  0.00000000E+00  0.00000000E+00  0.00000000E+00
 -1.00397479E-01 -2.36865101E-01 -5.48306089E-01  0.00000000E+00 -9.25012643E-03
  4.25971573E-03  0.00000000E+00 -1.65667010E-02 -3.71051512E-03 -1.75432553E-03
  0.00000000E+00  2.56143522E-03  1.28535763E-03  0.00000000E+00 -1.00397479E-01
 -2.36865101E-01 -5.48306089E-01  0.00000000E+00  9.25012643E-03  4.25971573E-03
  0.00000000E+00  1.65667010E-02 -3.71051512E-03 -1.75432553E-03  0.00000000E+00
 -2.56143522E-03  1.28535763E-03  0.00000000E+00  0.00000000E+00  0.00000000E+00
  0.00000000E+00  0.00000000E+00  0.00000000E+00 -2.69061849E-01  0.00000000E+00
  0.00000000E+00 -3.06583965E-01  0.00000000E+00  0.00000000E+00 -5.57269319E-01
  0.00000000E+00  0.00000000E+00  0.00000000E+00 -4.75426829E-03  0.00000000E+00
  0.00000000E+00  0.00000000E+00  0.00000000E+00  1.08913340E-02  0.00000000E+00
  0.00000000E+00  0.00000000E+00  0.00000000E+00  4.31737296E-04  0.00000000E+00
  0.00000000E+00  0.00000000E+00  3.14180620E-03  9.60243115E-02  2.67389748E-01
  8.28482946E-01  0.00000000E+00  9.49972350E-03 -8.77316212E-03  0.00000000E+00
 -2.75773610E-03 -1.02044507E-02 -1.44088510E-03  0.00000000E+00 -3.25572336E-03
 -2.56427950E-03  0.00000000E+00 -9.60243115E-02 -2.67389748E-01 -8.28482946E-01
  0.00000000E+00  9.49972350E-03  8.77316212E-03  0.00000000E+00 -2.75773610E-03
  1.02044507E-02  1.44088510E-03  0.00000000E+00 -3.25572336E-03  2.56427950E-03
  0.00000000E+00 -1.55116022E-02  1.16254379E-01  3.29762715E-02 -4.88472549E-01
  0.00000000E+00  0.00000000E+00 -1.13864148E-01  0.00000000E+00  0.00000000E+00
 -1.32137963E-01  0.00000000E+00  0.00000000E+00  2.35784430E-02  4.97430533E-03
  0.00000000E+00  0.00000000E+00  7.95127992E-03  0.00000000E+00 -1.62438547E-03
  0.00000000E+00  0.00000000E+00  5.42817297E-02  0.00000000E+00 -1.68674035E-03
  0.00000000E+00  0.00000000E+00 -4.67719583E-03  0.00000000E+00  0.00000000E+00
  0.00000000E+00 -1.38267152E-01 -8.33197726E-01  9.34338282E-01  0.00000000E+00
  1.13911476E-02 -2.27693156E-03  0.00000000E+00 -2.03249484E-01  2.31640822E-03
 -4.30921387E-03  0.00000000E+00 -6.61292511E-03 -6.10555429E-03  0.00000000E+00
 -1.38267152E-01 -8.33197726E-01  9.34338282E-01  0.00000000E+00 -1.13911476E-02
 -2.27693156E-03  0.00000000E+00  2.03249484E-01  2.31640822E-03 -4.30921387E-03
  0.00000000E+00  6.61292511E-03 -6.10555429E-03  0.00000000E+00  0.00000000E+00
  0.00000000E+00  0.00000000E+00  0.00000000E+00  0.00000000E+00  1.03041569E-01
  0.00000000E+00  0.00000000E+00  1.24300939E-01  0.00000000E+00  0.00000000E+00
  1.08100303E-01  0.00000000E+00  0.00000000E+00  0.00000000E+00  1.30944940E-02
  0.00000000E+00  0.00000000E+00  0.00000000E+00  0.00000000E+00  3.36821674E-02
  0.00000000E+00  0.00000000E+00  0.00000000E+00  0.00000000E+00 -4.26440845E-04
  0.00000000E+00  0.00000000E+00  0.00000000E+00 -7.10291062E-04 -1.20921200E-01
 -9.42299980E-01  1.32677153E+00  0.00000000E+00  1.14665704E-02 -8.65578729E-03
  0.00000000E+00 -3.70371378E-02  1.18049667E-01  1.72126190E-03  0.00000000E+00
  7.95475216E-05 -2.18138928E-03  0.00000000E+00  1.20921200E-01  9.42299980E-01
 -1.32677153E+00  0.00000000E+00  1.14665704E-02  8.65578729E-03  0.00000000E+00
 -3.70371378E-02 -1.18049667E-01 -1.72126190E-03  0.00000000E+00  7.95475216E-05
  2.18138928E-03  0.00000000E+00  3.07397655E-02 -3.46505580E-02  7.88089574E-03
 -1.03202043E+00  0.00000000E+00  0.00000000E+00 -2.43665894E-01  0.00000000E+00
  0.00000000E+00 -4.56609941E-01  0.00000000E+00  0.00000000E+00  1.07232257E+00
 -3.36774913E-03  0.00000000E+00  0.00000000E+00 -1.94331118E-02  0.00000000E+00
 -2.29296284E-02  0.00000000E+00  0.00000000E+00  1.03722017E-01  0.00000000E+00
 -9.61509055E-03  0.00000000E+00  0.00000000E+00 -1.57969678E-02  0.00000000E+00
  0.00000000E+00  0.00000000E+00 -2.61825458E-02  4.61083733E-01  2.41827224E-01
  0.00000000E+00 -7.05422846E-03 -2.69371467E-02  0.00000000E+00 -9.91562795E-02
  5.34087098E-01 -5.21022984E-03  0.00000000E+00 -2.50916984E-02 -2.08523987E-02
  0.00000000E+00 -2.61825458E-02  4.61083733E-01  2.41827224E-01  0.00000000E+00
  7.05422846E-03 -2.69371467E-02  0.00000000E+00  9.91562795E-02  5.34087098E-01
 -5.21022984E-03  0.00000000E+00  2.50916984E-02 -2.08523987E-02  0.00000000E+00
  0.00000000E+00  0.00000000E+00  0.00000000E+00  0.00000000E+00 -2.86399640E-01
  0.00000000E+00  0.00000000E+00 -6.64904263E-01  0.00000000E+00  0.00000000E+00
  7.83951953E-01  0.00000000E+00  0.00000000E+00  0.00000000E+00  1.29439814E-03
  0.00000000E+00  0.00000000E+00  0.00000000E+00  0.00000000E+00 -2.18637128E-02
  0.00000000E+00  0.00000000E+00  0.00000000E+00  0.00000000E+00 -2.15352080E-04
  0.00000000E+00  0.00000000E+00  0.00000000E+00  2.29882387E-03  0.00000000E+00
  0.00000000E+00  0.00000000E+00  0.00000000E+00 -2.36150577E-02  0.00000000E+00
  0.00000000E+00  3.14035887E-01  0.00000000E+00  0.00000000E+00  0.00000000E+00
 -1.25414614E-02  0.00000000E+00  0.00000000E+00  1.18356047E-02  0.00000000E+00
  0.00000000E+00  0.00000000E+00 -2.36150577E-02  0.00000000E+00  0.00000000E+00
  3.14035887E-01  0.00000000E+00  0.00000000E+00  0.00000000E+00 -1.25414614E-02
  0.00000000E+00  0.00000000E+00 -1.18356047E-02  0.00000000E+00  0.00000000E+00
  0.00000000E+00  0.00000000E+00  0.00000000E+00 -2.52307048E-01  0.00000000E+00
  0.00000000E+00 -4.64313922E-01  0.00000000E+00  0.00000000E+00  2.08312313E+00
  0.00000000E+00  0.00000000E+00  0.00000000E+00  3.67708784E-02  0.00000000E+00
  0.00000000E+00  0.00000000E+00  0.00000000E+00 -2.01262696E-01  0.00000000E+00
  0.00000000E+00  0.00000000E+00  0.00000000E+00  1.14470054E-02  0.00000000E+00
  0.00000000E+00  0.00000000E+00 -1.53230054E-02  5.91643268E-02 -6.30850494E-01
 -8.87340844E-01  0.00000000E+00 -3.71134467E-03 -1.03644637E-02  0.00000000E+00
  5.35255668E-01 -1.15151441E-01 -5.37428980E-03  0.00000000E+00  5.07952186E-02
  2.02599134E-02  0.00000000E+00 -5.91643268E-02  6.30850494E-01  8.87340844E-01
  0.00000000E+00 -3.71134467E-03  1.03644637E-02  0.00000000E+00  5.35255668E-01
  1.15151441E-01  5.37428980E-03  0.00000000E+00  5.07952186E-02 -2.02599134E-02
  0.00000000E+00  0.00000000E+00  0.00000000E+00  0.00000000E+00  0.00000000E+00
  0.00000000E+00  0.00000000E+00  0.00000000E+00  0.00000000E+00  0.00000000E+00
  0.00000000E+00  0.00000000E+00  0.00000000E+00  0.00000000E+00  0.00000000E+00
  0.00000000E+00  0.00000000E+00  0.00000000E+00  1.56912524E-02  0.00000000E+00
  0.00000000E+00  0.00000000E+00  0.00000000E+00  6.57299447E-02  0.00000000E+00
  0.00000000E+00  0.00000000E+00  0.00000000E+00  6.03845710E-03  0.00000000E+00
  0.00000000E+00  0.00000000E+00  0.00000000E+00  0.00000000E+00 -4.69415318E-02
  0.00000000E+00  0.00000000E+00  7.39714956E-01  0.00000000E+00  0.00000000E+00
  0.00000000E+00  7.07388544E-03  0.00000000E+00  0.00000000E+00  8.74422973E-04
  0.00000000E+00  0.00000000E+00  0.00000000E+00  4.69415318E-02  0.00000000E+00
  0.00000000E+00 -7.39714956E-01  0.00000000E+00  0.00000000E+00  0.00000000E+00
 -7.07388544E-03  0.00000000E+00  0.00000000E+00  8.74422973E-04  4.93398147E-02
 -2.69715532E-01 -4.59629908E-02 -8.76352601E-01  0.00000000E+00  0.00000000E+00
 -8.10316166E-02  0.00000000E+00  0.00000000E+00 -2.33973778E-01  0.00000000E+00
  0.00000000E+00  1.70287397E+00  2.07574070E-02  0.00000000E+00  0.00000000E+00
 -6.81696444E-03  0.00000000E+00  3.46571968E-02  0.00000000E+00  0.00000000E+00
  8.83276549E-02  0.00000000E+00 -4.30393086E-03  0.00000000E+00  0.00000000E+00
 -1.45820722E-02  0.00000000E+00  0.00000000E+00  0.00000000E+00 -1.11887271E-04
  9.93677406E-01 -1.35205531E-01  0.00000000E+00  4.93932057E-02  2.50189160E-02
  0.00000000E+00 -7.77967769E-01 -2.87728372E-01 -1.55618067E-02  0.00000000E+00
 -1.22926660E-03 -3.62337999E-02  0.00000000E+00 -1.11887271E-04  9.93677406E-01
 -1.35205531E-01  0.00000000E+00 -4.93932057E-02  2.50189160E-02  0.00000000E+00
  7.77967769E-01 -2.87728372E-01 -1.55618067E-02  0.00000000E+00  1.22926660E-03
 -3.62337999E-02  0.00000000E+00  0.00000000E+00  0.00000000E+00  0.00000000E+00
  0.00000000E+00 -9.14740652E-02  0.00000000E+00  0.00000000E+00 -3.46229824E-01
  0.00000000E+00  0.00000000E+00  1.19567514E+00  0.00000000E+00  0.00000000E+00
  0.00000000E+00  1.27171930E-02  0.00000000E+00  0.00000000E+00  0.00000000E+00
  0.00000000E+00  1.06184475E-01  0.00000000E+00  0.00000000E+00  0.00000000E+00
  0.00000000E+00 -6.00856990E-04  0.00000000E+00  0.00000000E+00  0.00000000E+00
 -6.33931202E-03  0.00000000E+00  0.00000000E+00  0.00000000E+00  0.00000000E+00
  5.13496937E-02  0.00000000E+00  0.00000000E+00 -8.00789133E-01  0.00000000E+00
  0.00000000E+00  0.00000000E+00  1.10848591E-03  0.00000000E+00  0.00000000E+00
  1.80412930E-02  0.00000000E+00  0.00000000E+00  0.00000000E+00  5.13496937E-02
  0.00000000E+00  0.00000000E+00 -8.00789133E-01  0.00000000E+00  0.00000000E+00
  0.00000000E+00  1.10848591E-03  0.00000000E+00  0.00000000E+00 -1.80412930E-02
  0.00000000E+00  0.00000000E+00  0.00000000E+00  0.00000000E+00  0.00000000E+00
 -5.35781354E-02  0.00000000E+00  0.00000000E+00 -1.44063771E-01  0.00000000E+00
  0.00000000E+00  1.79888703E+00  0.00000000E+00  0.00000000E+00  0.00000000E+00
  1.76502329E-02  0.00000000E+00  0.00000000E+00  0.00000000E+00  0.00000000E+00
 -1.03758201E-01  0.00000000E+00  0.00000000E+00  0.00000000E+00  0.00000000E+00
  4.25718486E-03  0.00000000E+00  0.00000000E+00  0.00000000E+00 -9.73690371E-03
  6.23377598E-03 -8.20433670E-01 -2.19456907E-01  0.00000000E+00  2.59281081E-02
  4.31374135E-02  0.00000000E+00 -2.38270080E-01 -9.35185458E-01  3.40461485E-03
  0.00000000E+00  2.19357233E-02  2.39705537E-02  0.00000000E+00 -6.23377598E-03
  8.20433670E-01  2.19456907E-01  0.00000000E+00  2.59281081E-02 -4.31374135E-02
  0.00000000E+00 -2.38270080E-01  9.35185458E-01 -3.40461485E-03  0.00000000E+00
  2.19357233E-02 -2.39705537E-02  0.00000000E+00 -4.97381297E-02  1.00767960E+00
  2.43984383E-01 -6.95184963E-01  0.00000000E+00  0.00000000E+00 -1.36461740E-01
  0.00000000E+00  0.00000000E+00 -3.74010154E-01  0.00000000E+00  0.00000000E+00
  4.67577034E-01  4.25438983E-03  0.00000000E+00  0.00000000E+00  3.27450864E-03
  0.00000000E+00  7.06782371E-02  0.00000000E+00  0.00000000E+00 -3.24994950E-02
  0.00000000E+00 -4.93504112E-03  0.00000000E+00  0.00000000E+00 -7.87932076E-03
  0.00000000E+00  0.00000000E+00  0.00000000E+00 -7.34354273E-02  1.59948944E-01
 -4.48865981E-03  0.00000000E+00 -4.81706061E-02  4.27066662E-02  0.00000000E+00
  4.43908659E-01 -4.93965924E-01 -1.18058583E-03  0.00000000E+00 -3.53274027E-02
 -2.95274753E-02  0.00000000E+00 -7.34354273E-02  1.59948944E-01 -4.48865981E-03
  0.00000000E+00  4.81706061E-02  4.27066662E-02  0.00000000E+00 -4.43908659E-01
 -4.93965924E-01 -1.18058583E-03  0.00000000E+00  3.53274027E-02 -2.95274753E-02
  0.00000000E+00  0.00000000E+00  0.00000000E+00  0.00000000E+00  0.00000000E+00
  0.00000000E+00  1.63668741E-01  0.00000000E+00  0.00000000E+00  5.98770357E-01
  0.00000000E+00  0.00000000E+00  8.93772163E-01  0.00000000E+00  0.00000000E+00
  0.00000000E+00  2.70410674E-02  0.00000000E+00  0.00000000E+00  0.00000000E+00
  0.00000000E+00 -2.37337767E-02  0.00000000E+00  0.00000000E+00  0.00000000E+00
  0.00000000E+00  4.07099261E-03  0.00000000E+00  0.00000000E+00  0.00000000E+00
 -1.13562609E-02 -1.12310890E-01 -3.56781991E-01 -8.37688377E-01  0.00000000E+00
 -5.19999029E-02  4.65409338E-02  0.00000000E+00  1.06411212E+00 -7.78390917E-01
  1.02985478E-02  0.00000000E+00  2.38707973E-02  4.45618686E-03  0.00000000E+00
  1.12310890E-01  3.56781991E-01  8.37688377E-01  0.00000000E+00 -5.19999029E-02
 -4.65409338E-02  0.00000000E+00  1.06411212E+00  7.78390917E-01 -1.02985478E-02
  0.00000000E+00  2.38707973E-02 -4.45618686E-03  0.00000000E+00 -1.64937286E-02
 -9.65511481E-01 -2.80722960E-01  4.42475054E+00  0.00000000E+00  0.00000000E+00
 -8.38164175E-02  0.00000000E+00  0.00000000E+00 -4.40043269E-01  0.00000000E+00
  0.00000000E+00 -1.23811751E+00  5.64539800E-04  0.00000000E+00  0.00000000E+00
  3.00669169E-02  0.00000000E+00 -1.08503920E-01  0.00000000E+00  0.00000000E+00