Ammonia DF-B97D3/def2-SVP                                               
FOpt      RB97D3                                                      def2SVP/W06         
Number of atoms                            I                4
Info1-9                                    I   N=           9
          19          18           0           0           0         111
           2          18        -902
Full Title                                 C   N=           3
Ammonia DF-B97D3/def2-SVP           
Route                                      C   N=          12
#P B97D3/def2SVP/W06 DenFit opt(MaxCycle=100) scf(xqc,MaxCon
ventionalCycle=500) int(ultrafinegrid) gfinput gfoldprint io
p(6/7=3) symmetry(loose)
Charge                                     I                0
Multiplicity                               I                1
Number of electrons                        I               10
Number of alpha electrons                  I                5
Number of beta electrons                   I                5
Number of basis functions                  I               29
Number of independent functions            I               29
Number of point charges in /Mol/           I                0
Number of translation vectors              I                0
Atomic numbers                             I   N=           4
           7           1           1           1
Nuclear charges                            R   N=           4
  7.00000000E+00  1.00000000E+00  1.00000000E+00  1.00000000E+00
Current cartesian coordinates              R   N=          12
  0.00000000E+00 -0.00000000E+00  2.39662937E-01  0.00000000E+00  1.76840880E+00
 -5.59213519E-01 -1.53148695E+00 -8.84204401E-01 -5.59213519E-01  1.53148695E+00
 -8.84204401E-01 -5.59213519E-01
Number of symbols in /Mol/                 I                0
Redundant internal dimensions              I   N=           4
           7           3           3           1
Redundant internal coordinate indices      I   N=          28
           1           2           0           0           1           3
           0           0           1           4           0           0
           2           1           3           0           2           1
           4           0           3           1           4           0
           2           1           4           3
Redundant internal coordinates             R   N=           7
  1.94048274E+00  1.94048274E+00  1.94048274E+00  1.81910781E+00  1.81910781E+00
  1.81910781E+00 -1.90270831E+00
ZRed-IntVec                                I   N=           7
           0           0           0           0           0           0
           0
ZRed-FPVec                                 R   N=           7
  0.00000000E+00  0.00000000E+00  0.00000000E+00  0.00000000E+00  0.00000000E+00
  0.00000000E+00  0.00000000E+00
ZRed-Constraint1                           R   N=           7
  1.92367312E+00  1.92367312E+00  1.92367312E+00  1.84561291E+00  1.84561291E+00
  1.84561291E+00 -1.95243253E+00
ZRed-Constraint2                           R   N=           7
  0.00000000E+00  0.00000000E+00  0.00000000E+00  0.00000000E+00  0.00000000E+00
  0.00000000E+00  0.00000000E+00
Force Field                                I                0
Atom Types                                 C   N=           4
                                                
Int Atom Types                             I   N=           4
           0           0           0           0
MM charges                                 R   N=           4
  0.00000000E+00  0.00000000E+00  0.00000000E+00  0.00000000E+00
Integer atomic weights                     I   N=           4
          14           1           1           1
Real atomic weights                        R   N=           4
  1.40030740E+01  1.00782504E+00  1.00782504E+00  1.00782504E+00
Atom fragment info                         I   N=           4
           0           0           0           0
Atom residue num                           I   N=           4
           0           0           0           0
Nuclear spins                              I   N=           4
           2           1           1           1
Nuclear ZEff                               R   N=           4
 -4.55000000E+00 -1.00000000E+00 -1.00000000E+00 -1.00000000E+00
Nuclear ZNuc                               R   N=           4
  7.00000000E+00  1.00000000E+00  1.00000000E+00  1.00000000E+00
Nuclear QMom                               R   N=           4
  2.04400000E+00  0.00000000E+00  0.00000000E+00  0.00000000E+00
Nuclear GFac                               R   N=           4
  4.03761000E-01  2.79284600E+00  2.79284600E+00  2.79284600E+00
MicOpt                                     I   N=           4
          -1          -1          -1          -1
Number of residues                         I                0
Number of secondary structures             I                0
SymInf integers                            I   N=          26
           2           2           1           1           1          -1
           1           1           0           0           0           0
           0           0           0           0           0           0
           0           0           0           0           0           0
           0           0
RotTr to input orientation                 R   N=          12
  3.34104244E-10 -1.00000000E+00  0.00000000E+00 -1.00000000E+00 -3.34104244E-10
  0.00000000E+00  0.00000000E+00  0.00000000E+00 -1.00000000E+00 -1.88972504E-10
  1.55431223E-16  7.03803141E-02
Number of contracted shells                I               15
Number of primitive shells                 I               27
Pure/Cartesian d shells                    I                0
Pure/Cartesian f shells                    I                0
Highest angular momentum                   I                2
Largest degree of contraction              I                5
Shell types                                I   N=          15
           0           0           0           1           1          -2
           0           0           1           0           0           1
           0           0           1
Number of primitives per shell             I   N=          15
           5           1           1           3           1           1
           3           1           1           3           1           1
           3           1           1
Shell to atom map                          I   N=          15
           1           1           1           1           1           1
           2           2           2           3           3           3
           4           4           4
Primitive exponents                        R   N=          27
  1.71284159E+03  2.57648127E+02  5.84582459E+01  1.61983679E+01  5.00526008E+00
  5.87318566E-01  1.87645923E-01  1.35714702E+01  2.92573729E+00  7.99277508E-01
  2.19543480E-01  1.00000000E+00  1.30107010E+01  1.96225720E+00  4.44537960E-01
  1.21949620E-01  8.00000000E-01  1.30107010E+01  1.96225720E+00  4.44537960E-01
  1.21949620E-01  8.00000000E-01  1.30107010E+01  1.96225720E+00  4.44537960E-01
  1.21949620E-01  8.00000000E-01
Contraction coefficients                   R   N=          27
 -5.44779958E-03 -4.06271746E-02 -1.81119623E-01 -4.68439756E-01 -4.46168463E-01
  1.00000000E+00  1.00000000E+00 -5.88481170E-02 -3.20246248E-01 -7.53282265E-01
  1.00000000E+00  1.00000000E+00  3.34854848E-02  2.34721871E-01  8.13770285E-01
  1.00000000E+00  1.00000000E+00  3.34854848E-02  2.34721871E-01  8.13770285E-01
  1.00000000E+00  1.00000000E+00  3.34854848E-02  2.34721871E-01  8.13770285E-01
  1.00000000E+00  1.00000000E+00
Coordinates of each shell                  R   N=          45
  0.00000000E+00  0.00000000E+00  2.39662937E-01  0.00000000E+00  0.00000000E+00
  2.39662937E-01  0.00000000E+00  0.00000000E+00  2.39662937E-01  0.00000000E+00
  0.00000000E+00  2.39662937E-01  0.00000000E+00  0.00000000E+00  2.39662937E-01
  0.00000000E+00  0.00000000E+00  2.39662937E-01  0.00000000E+00  1.76840880E+00
 -5.59213519E-01  0.00000000E+00  1.76840880E+00 -5.59213519E-01  0.00000000E+00
  1.76840880E+00 -5.59213519E-01 -1.53148695E+00 -8.84204401E-01 -5.59213519E-01
 -1.53148695E+00 -8.84204401E-01 -5.59213519E-01 -1.53148695E+00 -8.84204401E-01
 -5.59213519E-01  1.53148695E+00 -8.84204401E-01 -5.59213519E-01  1.53148695E+00
 -8.84204401E-01 -5.59213519E-01  1.53148695E+00 -8.84204401E-01 -5.59213519E-01
Density Number of contracted shells        I               30
Density Number of primitive shells         I               48
Density Pure/Cartesian d shells            I                0
Density Pure/Cartesian f shells            I                0
Density Highest angular momentum           I                4
Density Largest degree of contraction      I                7
Density Shell types                        I   N=          30
           0           0           0           0           0           0
           1           1           1           1          -2          -2
          -2          -3          -4           0           0           0
           1          -2           0           0           0           1
          -2           0           0           0           1          -2
Density Number of primitives per shell     I   N=          30
           7           1           1           1           1           1
           2           1           1           1           2           1
           1           2           1           3           1           1
           2           1           3           1           1           2
           1           3           1           1           2           1
Density Shell to atom map                  I   N=          30
           1           1           1           1           1           1
           1           1           1           1           1           1
           1           1           1           2           2           2
           2           2           3           3           3           3
           3           4           4           4           4           4
Density Primitive exponents                R   N=          48
  2.54294018E+03  1.02954730E+03  4.24905355E+02  1.78457371E+02  7.61362742E+01
  3.29338653E+01  1.44155436E+01  6.37188910E+00  2.83817420E+00  1.27117930E+00
  5.71240700E-01  2.56988700E-01  1.78975990E+01  6.53463190E+00  2.35236450E+00
  8.39737700E-01  2.98933500E-01  7.69098700E+00  2.30449720E+00  8.40398700E-01
  3.30379700E-01  2.33310760E+00  8.44613700E-01  1.40377000E+00  1.56752927E+01
  3.60635780E+00  1.20800160E+00  4.72679400E-01  2.01810000E-01  2.02813650E+00
  5.35873000E-01  2.21651240E+00  1.56752927E+01  3.60635780E+00  1.20800160E+00
  4.72679400E-01  2.01810000E-01  2.02813650E+00  5.35873000E-01  2.21651240E+00
  1.56752927E+01  3.60635780E+00  1.20800160E+00  4.72679400E-01  2.01810000E-01
  2.02813650E+00  5.35873000E-01  2.21651240E+00
Density Contraction coefficients           R   N=          48
  1.57267989E-03  3.97704448E-03  1.95376611E-02  7.47626441E-02  2.18976743E-01
  4.21671880E-01  2.96402909E-01 -1.00000000E+00  1.00000000E+00  1.00000000E+00
  1.00000000E+00  1.00000000E+00 -1.19813247E+00  2.49356462E-01  1.00000000E+00
  1.00000000E+00  1.00000000E+00  9.91894048E-02  9.12612482E-01  1.00000000E+00
  1.00000000E+00  4.52107608E-01  6.08156234E-01 -1.00000000E+00  3.26115897E-02
  2.29804684E-01  7.57208324E-01  1.00000000E+00  1.00000000E+00  3.61836199E-01
  7.03930309E-01  1.00000000E+00  3.26115897E-02  2.29804684E-01  7.57208324E-01
  1.00000000E+00  1.00000000E+00  3.61836199E-01  7.03930309E-01  1.00000000E+00
  3.26115897E-02  2.29804684E-01  7.57208324E-01  1.00000000E+00  1.00000000E+00
  3.61836199E-01  7.03930309E-01  1.00000000E+00
Density Coordinates of each shell          R   N=          90
  0.00000000E+00  0.00000000E+00  2.39662937E-01  0.00000000E+00  0.00000000E+00
  2.39662937E-01  0.00000000E+00  0.00000000E+00  2.39662937E-01  0.00000000E+00
  0.00000000E+00  2.39662937E-01  0.00000000E+00  0.00000000E+00  2.39662937E-01
  0.00000000E+00  0.00000000E+00  2.39662937E-01  0.00000000E+00  0.00000000E+00
  2.39662937E-01  0.00000000E+00  0.00000000E+00  2.39662937E-01  0.00000000E+00
  0.00000000E+00  2.39662937E-01  0.00000000E+00  0.00000000E+00  2.39662937E-01
  0.00000000E+00  0.00000000E+00  2.39662937E-01  0.00000000E+00  0.00000000E+00
  2.39662937E-01  0.00000000E+00  0.00000000E+00  2.39662937E-01  0.00000000E+00
  0.00000000E+00  2.39662937E-01  0.00000000E+00  0.00000000E+00  2.39662937E-01
  0.00000000E+00  1.76840880E+00 -5.59213519E-01  0.00000000E+00  1.76840880E+00
 -5.59213519E-01  0.00000000E+00  1.76840880E+00 -5.59213519E-01  0.00000000E+00
  1.76840880E+00 -5.59213519E-01  0.00000000E+00  1.76840880E+00 -5.59213519E-01
 -1.53148695E+00 -8.84204401E-01 -5.59213519E-01 -1.53148695E+00 -8.84204401E-01
 -5.59213519E-01 -1.53148695E+00 -8.84204401E-01 -5.59213519E-01 -1.53148695E+00
 -8.84204401E-01 -5.59213519E-01 -1.53148695E+00 -8.84204401E-01 -5.59213519E-01
  1.53148695E+00 -8.84204401E-01 -5.59213519E-01  1.53148695E+00 -8.84204401E-01
 -5.59213519E-01  1.53148695E+00 -8.84204401E-01 -5.59213519E-01  1.53148695E+00
 -8.84204401E-01 -5.59213519E-01  1.53148695E+00 -8.84204401E-01 -5.59213519E-01
Constraint Structure                       R   N=          12
  0.00000000E+00 -0.00000000E+00  2.25306189E-01  0.00000000E+00  1.77101279E+00
 -5.25714440E-01 -1.53374206E+00 -8.85506393E-01 -5.25714440E-01  1.53374206E+00
 -8.85506393E-01 -5.25714440E-01
Num ILSW                                   I              100
ILSW                                       I   N=         100
           0           0           0           0           2           0
           0           0           0           0        3630          -1
           5           0           0           0           2           0
           0           0           0           0           1           0
           1           0           0           0           0           0
           0           0      100000           0          -1           0
           0           0           0           0           0           0
           0           0           0           1           0           0
           0           0           1           0           0           0
           0           0         141          41           0           0
           0           0          59           0           0           0
           0           0           0           4           0           0
           0           0           0           0           0           0
           0           0           0           0           0           0
           0           0           0           0           0           0
           0           0           0           0           0           0
           0           0           0           0
Num RLSW                                   I               41
RLSW                                       R   N=          41
  1.00000000E+00  1.00000000E+00  1.00000000E+00  1.00000000E+00  0.00000000E+00
  0.00000000E+00  0.00000000E+00  1.00000000E+00  0.00000000E+00  0.00000000E+00
  0.00000000E+00  0.00000000E+00  1.00000000E+00  0.00000000E+00  0.00000000E+00
  0.00000000E+00  0.00000000E+00  1.00000000E+00  0.00000000E+00  0.00000000E+00
  0.00000000E+00  0.00000000E+00  1.00000000E+00  0.00000000E+00  0.00000000E+00
  0.00000000E+00  0.00000000E+00  1.00000000E+00  0.00000000E+00  0.00000000E+00
  0.00000000E+00  0.00000000E+00  1.00000000E+00  0.00000000E+00  0.00000000E+00
  0.00000000E+00  0.00000000E+00  0.00000000E+00  1.00000000E+00  1.00000000E+00
  0.00000000E+00
ECP-MxAtEC                                 I           250000
ECP-MaxLECP                                I               10
ECP-MaxAtL                                 I          2250000
ECP-MxTECP                                 I         11250000
ECP-LenNCZ                                 I                0
ECP-KFirst                                 I   N=          40
           0           0           0           0           0           0
           0           0           0           0           0           0
           0           0           0           0           0           0
           0           0           0           0           0           0
           0           0           0           0           0           0
           0           0           0           0           0           0
           0           0           0           0
ECP-KLast                                  I   N=          40
           0           0           0           0           0           0
           0           0           0           0           0           0
           0           0           0           0           0           0
           0           0           0           0           0           0
           0           0           0           0           0           0
           0           0           0           0           0           0
           0           0           0           0
ECP-LMax                                   I   N=           4
           0           0           0           0
ECP-LPSkip                                 I   N=           4
           1           1           1           1
ECP-RNFroz                                 R   N=           4
  0.00000000E+00  0.00000000E+00  0.00000000E+00  0.00000000E+00
ECP-NLP                                    I                0
ECP-CLP1                                   R      0.000000000000000E+00
ECP-CLP2                                   R      0.000000000000000E+00
ECP-ZLP                                    R      0.000000000000000E+00
MxBond                                     I                3
NBond                                      I   N=           4
           3           1           1           1
IBond                                      I   N=          12
           2           3           4           1           0           0
           1           0           0           1           0           0
RBond                                      R   N=          12
  1.00000000E+00  1.00000000E+00  1.00000000E+00  1.00000000E+00  0.00000000E+00
  0.00000000E+00  1.00000000E+00  0.00000000E+00  0.00000000E+00  1.00000000E+00
  0.00000000E+00  0.00000000E+00
Virial Ratio                               R      2.009506291278164E+00
SCF Energy                                 R     -5.647805098882192E+01
Total Energy                               R     -5.647805098882192E+01
RMS Force                                  R      1.061366347794139E-04
RMS Density                                R      9.608433825235741E-10
Job Status                                 I                1
Nuclear derivative order                   I                1
External E-field                           R   N=          35
  0.00000000E+00  0.00000000E+00  0.00000000E+00  0.00000000E+00  0.00000000E+00
  0.00000000E+00  0.00000000E+00  0.00000000E+00  0.00000000E+00  0.00000000E+00
  0.00000000E+00  0.00000000E+00  0.00000000E+00  0.00000000E+00  0.00000000E+00
  0.00000000E+00  0.00000000E+00  0.00000000E+00  0.00000000E+00  0.00000000E+00
  0.00000000E+00  0.00000000E+00  0.00000000E+00  0.00000000E+00  0.00000000E+00
  0.00000000E+00  0.00000000E+00  0.00000000E+00  0.00000000E+00  0.00000000E+00
  0.00000000E+00  0.00000000E+00  0.00000000E+00  0.00000000E+00  0.00000000E+00
IOpCl                                      I                0
IROHF                                      I                0
Alpha Orbital Energies                     R   N=          29
 -1.39809255E+01 -7.59122158E-01 -3.98094534E-01 -3.98094534E-01 -2.07520436E-01
  3.57209952E-02  1.16619161E-01  1.16619161E-01  4.72957919E-01  4.72957919E-01
  5.96158162E-01  6.98971636E-01  7.94429816E-01  7.94429816E-01  8.92613431E-01
  1.13364185E+00  1.13364185E+00  1.54631480E+00  1.59529713E+00  1.73857538E+00
  1.73857538E+00  1.99594094E+00  1.99594094E+00  2.38881917E+00  2.70242631E+00
  2.70242631E+00  2.75884673E+00  3.23949833E+00  3.23949833E+00
Alpha MO coefficients                      R   N=         841
  9.88329022E-01 -4.44313115E-02  1.81306362E-02  0.00000000E+00 -4.43013177E-16
 -3.86945742E-03  0.00000000E+00 -1.41923104E-15 -4.58303047E-04  1.24657282E-03
  0.00000000E+00  1.11116840E-16 -2.39703702E-16  0.00000000E+00  3.34759998E-03
 -2.91467459E-03  0.00000000E+00 -3.28929973E-03  1.47656498E-03  3.34759998E-03
 -2.91467459E-03  2.84861713E-03  1.64464987E-03  1.47656498E-03  3.34759998E-03
 -2.91467459E-03 -2.84861713E-03  1.64464987E-03  1.47656498E-03  2.59226356E-01
  5.21002362E-01  1.63625029E-01  0.00000000E+00  2.16417120E-16  1.17317213E-01
  0.00000000E+00  3.96219822E-16 -5.22015379E-03 -1.40317470E-03  0.00000000E+00
  2.63357764E-17  9.06015771E-17  0.00000000E+00  1.97208519E-01  2.44291399E-02
  0.00000000E+00 -2.69108649E-02  4.16982569E-03  1.97208519E-01  2.44291399E-02
  2.33054927E-02  1.34554325E-02  4.16982569E-03  1.97208519E-01  2.44291399E-02
 -2.33054927E-02  1.34554325E-02  4.16982569E-03  0.00000000E+00  0.00000000E+00
  0.00000000E+00  4.66428196E-01  0.00000000E+00  0.00000000E+00 -1.89024824E-01
  0.00000000E+00  0.00000000E+00  0.00000000E+00  2.16267468E-02  0.00000000E+00
  0.00000000E+00  9.16436426E-03  0.00000000E+00  0.00000000E+00 -2.22943644E-02
  0.00000000E+00  0.00000000E+00  3.28860375E-01  1.32858246E-01  6.50853120E-03
  1.66293596E-02  1.00549015E-02 -3.28860375E-01 -1.32858246E-01  6.50853120E-03
 -1.66293596E-02 -1.00549015E-02 -3.27240055E-16 -1.32176461E-17 -7.03988135E-15
  0.00000000E+00  4.66428196E-01  3.17349399E-17  0.00000000E+00 -1.89024824E-01
  2.12683719E-15 -1.46904671E-16  0.00000000E+00  2.16267468E-02  9.16436426E-03
  0.00000000E+00 -3.79735253E-01 -1.53411488E-01  0.00000000E+00  1.61094964E-02
 -1.16104002E-02  1.89867626E-01  7.67057438E-02  1.66293596E-02 -1.26933992E-02
  5.80520011E-03  1.89867626E-01  7.67057438E-02 -1.66293596E-02 -1.26933992E-02
  5.80520011E-03 -1.05645567E-01 -2.16562929E-01 -3.47391493E-01  0.00000000E+00
 -9.41187700E-17  5.39665157E-01  0.00000000E+00 -5.06361418E-16 -4.25647428E-01
  2.17566903E-02  0.00000000E+00  2.07119539E-17 -2.33368537E-16  0.00000000E+00
  9.50294441E-02  6.22356695E-02  0.00000000E+00 -9.97806456E-03 -2.26618066E-02
  9.50294441E-02  6.22356695E-02  8.64125739E-03  4.98903228E-03 -2.26618066E-02
  9.50294441E-02  6.22356695E-02 -8.64125739E-03  4.98903228E-03 -2.26618066E-02
  1.28232211E-01  2.22800783E-01  1.42840383E+00  0.00000000E+00 -5.21545776E-15
  2.04819781E-01  0.00000000E+00  1.80455732E-14 -3.57436343E-01  5.39882773E-03
  0.00000000E+00 -5.48007422E-16  1.14216763E-15  0.00000000E+00 -9.13921715E-02
 -7.56958276E-01  0.00000000E+00 -7.92490327E-03  2.11842354E-03 -9.13921715E-02
 -7.56958276E-01  6.86316756E-03  3.96245164E-03  2.11842354E-03 -9.13921715E-02
 -7.56958276E-01 -6.86316756E-03  3.96245164E-03  2.11842354E-03  0.00000000E+00
  0.00000000E+00  0.00000000E+00 -4.02172055E-01  0.00000000E+00  0.00000000E+00
  7.72852721E-01  0.00000000E+00  0.00000000E+00  0.00000000E+00 -7.91401776E-03
  0.00000000E+00  0.00000000E+00  7.93611213E-03  0.00000000E+00  0.00000000E+00
  7.42311634E-03  0.00000000E+00  0.00000000E+00  1.25370368E-01  1.33459499E+00
 -4.50088684E-03 -6.88432644E-03 -7.02985502E-03 -1.25370368E-01 -1.33459499E+00
 -4.50088684E-03  6.88432644E-03  7.02985502E-03  2.07521727E-15  6.14149007E-15
  8.45941546E-15  0.00000000E+00  4.02172055E-01  2.84529252E-15  0.00000000E+00
 -7.72852721E-01 -1.05178469E-16  5.02465533E-16  0.00000000E+00  7.91401776E-03
 -7.93611213E-03  0.00000000E+00  1.44765232E-01  1.54105756E+00  0.00000000E+00
  8.47555457E-03 -8.11737737E-03 -7.23826158E-02 -7.70528778E-01  6.88432644E-03
 -3.44844861E-03  4.05868869E-03 -7.23826158E-02 -7.70528778E-01 -6.88432644E-03
 -3.44844861E-03  4.05868869E-03  0.00000000E+00  0.00000000E+00  0.00000000E+00
 -1.55156553E-01  0.00000000E+00  0.00000000E+00  5.05764734E-01  0.00000000E+00
  0.00000000E+00  0.00000000E+00  6.82176841E-02  0.00000000E+00  0.00000000E+00
  9.35589083E-02  0.00000000E+00  0.00000000E+00  9.19994504E-02  0.00000000E+00
  0.00000000E+00  9.20517850E-01 -7.27881119E-01 -1.74761687E-02 -6.32057781E-02
 -4.55928752E-02 -9.20517850E-01  7.27881119E-01 -1.74761687E-02  6.32057781E-02
  4.55928752E-02  8.66545483E-16  4.85587345E-15 -1.19346191E-14  0.00000000E+00
  1.55156553E-01  7.10632560E-16  0.00000000E+00 -5.05764734E-01  3.11924939E-15
  7.01842222E-16  0.00000000E+00 -6.82176841E-02 -9.35589083E-02  0.00000000E+00
  1.06292246E+00 -8.40484720E-01  0.00000000E+00  5.39680417E-02 -5.26461175E-02
 -5.31461228E-01  4.20242360E-01  6.32057781E-02 -5.55075774E-02  2.63230587E-02
 -5.31461228E-01  4.20242360E-01 -6.32057781E-02 -5.55075774E-02  2.63230587E-02
 -1.79668698E-01 -8.31228906E-01  1.32668354E+00  0.00000000E+00 -1.10314740E-15
 -3.92137529E-01  0.00000000E+00 -4.71790195E-15 -3.04813407E-01 -7.59009184E-02
  0.00000000E+00 -2.41068066E-16  1.38416773E-15  0.00000000E+00  5.75750402E-01
 -6.41749363E-01  0.00000000E+00  1.75441822E-01  2.05465284E-03  5.75750402E-01
 -6.41749363E-01 -1.51937074E-01 -8.77209108E-02  2.05465284E-03  5.75750402E-01
 -6.41749363E-01  1.51937074E-01 -8.77209108E-02  2.05465284E-03 -1.65363275E-01
 -8.34456741E-01  7.65257241E-01  0.00000000E+00 -6.48135250E-15  8.49361202E-01
  0.00000000E+00 -1.21383827E-14  9.66216525E-01  5.98155051E-04  0.00000000E+00
  3.78792936E-16  9.22265966E-16  0.00000000E+00  1.61944745E-01 -1.14971190E-01
  0.00000000E+00 -1.48379189E-02  1.06481833E-02  1.61944745E-01 -1.14971190E-01
  1.28500147E-02  7.41895945E-03  1.06481833E-02  1.61944745E-01 -1.14971190E-01
 -1.28500147E-02  7.41895945E-03  1.06481833E-02  0.00000000E+00  0.00000000E+00
  0.00000000E+00  8.88193782E-01  0.00000000E+00  0.00000000E+00  1.74371464E+00
  0.00000000E+00  0.00000000E+00  0.00000000E+00 -3.45298187E-02  0.00000000E+00
  0.00000000E+00 -3.73792904E-02  0.00000000E+00  0.00000000E+00  7.87849526E-03
  0.00000000E+00  0.00000000E+00  6.79698248E-02  1.08169557E+00  1.54822270E-01
  8.48380280E-02  8.52481930E-02 -6.79698248E-02 -1.08169557E+00  1.54822270E-01
 -8.48380280E-02 -8.52481930E-02 -6.72188114E-15 -5.05427651E-14  1.13483330E-13
  0.00000000E+00  8.88193782E-01 -4.51812421E-16  0.00000000E+00  1.74371464E+00
 -2.14755860E-14  1.31569389E-15  0.00000000E+00 -3.45298187E-02 -3.73792904E-02
  0.00000000E+00 -7.84847933E-02 -1.24903446E+00  0.00000000E+00  2.03803528E-01
 -9.84361344E-02  3.92423966E-02  6.24517231E-01  8.48380280E-02  5.68597535E-02
  4.92180672E-02  3.92423966E-02  6.24517231E-01 -8.48380280E-02  5.68597535E-02
  4.92180672E-02 -1.80973691E-01 -1.49618030E+00  3.59969816E+00  0.00000000E+00
 -2.55343149E-14 -2.41214656E-01  0.00000000E+00 -5.29578315E-14 -9.12629800E-01
  1.00699811E-01  0.00000000E+00 -1.60155657E-15  4.32824093E-15  0.00000000E+00
 -6.54494688E-01 -5.52384235E-01  0.00000000E+00 -8.86822691E-03 -1.67037630E-01
 -6.54494688E-01 -5.52384235E-01  7.68010979E-03  4.43411345E-03 -1.67037630E-01
 -6.54494688E-01 -5.52384235E-01 -7.68010979E-03  4.43411345E-03 -1.67037630E-01
  0.00000000E+00  0.00000000E+00  0.00000000E+00  1.84219251E-02  0.00000000E+00
  0.00000000E+00 -3.41473263E-01  0.00000000E+00  0.00000000E+00  0.00000000E+00
 -1.96884205E-01  0.00000000E+00  0.00000000E+00  1.60257547E-01  0.00000000E+00
  0.00000000E+00  4.89906505E-01  0.00000000E+00  0.00000000E+00 -1.40026783E-01
 -5.25580909E-02 -3.91996429E-02 -3.05479577E-01  3.86434387E-01  1.40026783E-01
  5.25580909E-02 -3.91996429E-02  3.05479577E-01 -3.86434387E-01 -6.38810039E-16
 -5.83617325E-15  1.92294534E-14  0.00000000E+00 -1.84219251E-02 -2.10504605E-15
  0.00000000E+00  3.41473263E-01 -6.98339784E-15 -6.81665329E-16  0.00000000E+00
  1.96884205E-01 -1.60257547E-01  0.00000000E+00 -1.61689001E-01 -6.06888558E-02
  0.00000000E+00  2.15568359E-01  4.46215994E-01  8.08445007E-02  3.03444279E-02
  3.05479577E-01 -3.13537789E-01 -2.23107997E-01  8.08445007E-02  3.03444279E-02
 -3.05479577E-01 -3.13537789E-01 -2.23107997E-01  0.00000000E+00  0.00000000E+00
  0.00000000E+00  3.12376871E-15  0.00000000E+00  0.00000000E+00 -7.39553762E-15
  0.00000000E+00  0.00000000E+00  0.00000000E+00  3.06739421E-15  0.00000000E+00
  0.00000000E+00  4.00835189E-15  0.00000000E+00  0.00000000E+00  6.12495866E-01
  0.00000000E+00  0.00000000E+00 -5.54736005E-15 -1.08089535E-15 -3.06247933E-01
  5.30436979E-01 -7.46502714E-15  5.54736005E-15  1.08089535E-15 -3.06247933E-01
 -5.30436979E-01  7.46502714E-15 -9.21280551E-02 -8.72058777E-01  1.84387805E+00
  0.00000000E+00 -7.10927269E-15 -9.62144736E-02  0.00000000E+00 -5.87205326E-15
 -1.06716074E+00 -3.05392593E-01  0.00000000E+00 -2.86171190E-15  1.99346904E-15
  0.00000000E+00 -5.40545973E-01 -1.99787006E-01  0.00000000E+00  6.86512124E-02
  5.19905392E-01 -5.40545973E-01 -1.99787006E-01 -5.94536940E-02 -3.43256062E-02
  5.19905392E-01 -5.40545973E-01 -1.99787006E-01  5.94536940E-02 -3.43256062E-02
  5.19905392E-01  7.26022464E-16  2.86519948E-15  6.09396905E-15  0.00000000E+00
  2.96969315E-03  1.53909715E-15  0.00000000E+00  9.33142066E-01 -3.75606423E-15
  2.02366622E-15  0.00000000E+00  1.00878125E-01 -5.39647447E-02  0.00000000E+00
 -3.98460878E-01 -1.85741200E-01  0.00000000E+00 -2.99757871E-01 -6.14640439E-01
  1.99230439E-01  9.28706001E-02  1.46566124E-01 -5.53617845E-01  3.07320220E-01
  1.99230439E-01  9.28706001E-02 -1.46566124E-01 -5.53617845E-01  3.07320220E-01
  0.00000000E+00  0.00000000E+00  0.00000000E+00  2.96969315E-03  0.00000000E+00
  0.00000000E+00  9.33142066E-01  0.00000000E+00  0.00000000E+00  0.00000000E+00
  1.00878125E-01  0.00000000E+00  0.00000000E+00 -5.39647447E-02  0.00000000E+00
  0.00000000E+00 -6.38237837E-01  0.00000000E+00  0.00000000E+00  3.45077242E-01
  1.60856598E-01 -3.84377862E-01  1.46566124E-01  5.32294234E-01 -3.45077242E-01