 Entering Gaussian System, Link 0=g09
 Input=ammonia.pbesvp.prop.com
 Output=ammonia.pbesvp.prop.log
 Initial command:
 /home/chemsoft/gaussian/g09e01/g09/l1.exe "/scr/martin/g09job.inter1516601223/Gau-10817.inp" -scrdir="/scr/martin/g09job.inter1516601223/"
 Entering Link 1 = /home/chemsoft/gaussian/g09e01/g09/l1.exe PID=     10818.
  
 Copyright (c) 1988,1990,1992,1993,1995,1998,2003,2009,2015,
            Gaussian, Inc.  All Rights Reserved.
  
 This is part of the Gaussian(R) 09 program.  It is based on
 the Gaussian(R) 03 system (copyright 2003, Gaussian, Inc.),
 the Gaussian(R) 98 system (copyright 1998, Gaussian, Inc.),
 the Gaussian(R) 94 system (copyright 1995, Gaussian, Inc.),
 the Gaussian 92(TM) system (copyright 1992, Gaussian, Inc.),
 the Gaussian 90(TM) system (copyright 1990, Gaussian, Inc.),
 the Gaussian 88(TM) system (copyright 1988, Gaussian, Inc.),
 the Gaussian 86(TM) system (copyright 1986, Carnegie Mellon
 University), and the Gaussian 82(TM) system (copyright 1983,
 Carnegie Mellon University). Gaussian is a federally registered
 trademark of Gaussian, Inc.
  
 This software contains proprietary and confidential information,
 including trade secrets, belonging to Gaussian, Inc.
  
 This software is provided under written license and may be
 used, copied, transmitted, or stored only in accord with that
 written license.
  
 The following legend is applicable only to US Government
 contracts under FAR:
  
                    RESTRICTED RIGHTS LEGEND
  
 Use, reproduction and disclosure by the US Government is
 subject to restrictions as set forth in subparagraphs (a)
 and (c) of the Commercial Computer Software - Restricted
 Rights clause in FAR 52.227-19.
  
 Gaussian, Inc.
 340 Quinnipiac St., Bldg. 40, Wallingford CT 06492
  
  
 ---------------------------------------------------------------
 Warning -- This program may not be used in any manner that
 competes with the business of Gaussian, Inc. or will provide
 assistance to any competitor of Gaussian, Inc.  The licensee
 of this program is prohibited from giving any competitor of
 Gaussian, Inc. access to this program.  By using this program,
 the user acknowledges that Gaussian, Inc. is engaged in the
 business of creating and licensing software in the field of
 computational chemistry and represents and warrants to the
 licensee that it is not a competitor of Gaussian, Inc. and that
 it will not use this program in any manner prohibited above.
 ---------------------------------------------------------------
  

 Cite this work as:
 Gaussian 09, Revision E.01,
 M. J. Frisch, G. W. Trucks, H. B. Schlegel, G. E. Scuseria, 
 M. A. Robb, J. R. Cheeseman, G. Scalmani, V. Barone, B. Mennucci, 
 G. A. Petersson, H. Nakatsuji, M. Caricato, X. Li, H. P. Hratchian, 
 A. F. Izmaylov, J. Bloino, G. Zheng, J. L. Sonnenberg, M. Hada, 
 M. Ehara, K. Toyota, R. Fukuda, J. Hasegawa, M. Ishida, T. Nakajima, 
 Y. Honda, O. Kitao, H. Nakai, T. Vreven, J. A. Montgomery, Jr., 
 J. E. Peralta, F. Ogliaro, M. Bearpark, J. J. Heyd, E. Brothers, 
 K. N. Kudin, V. N. Staroverov, T. Keith, R. Kobayashi, J. Normand, 
 K. Raghavachari, A. Rendell, J. C. Burant, S. S. Iyengar, J. Tomasi, 
 M. Cossi, N. Rega, J. M. Millam, M. Klene, J. E. Knox, J. B. Cross, 
 V. Bakken, C. Adamo, J. Jaramillo, R. Gomperts, R. E. Stratmann, 
 O. Yazyev, A. J. Austin, R. Cammi, C. Pomelli, J. W. Ochterski, 
 R. L. Martin, K. Morokuma, V. G. Zakrzewski, G. A. Voth, 
 P. Salvador, J. J. Dannenberg, S. Dapprich, A. D. Daniels, 
 O. Farkas, J. B. Foresman, J. V. Ortiz, J. Cioslowski, 
 and D. J. Fox, Gaussian, Inc., Wallingford CT, 2013.
 
 ******************************************
 Gaussian 09:  ES64L-G09RevE.01 30-Nov-2015
                22-Jan-2018 
 ******************************************
 %oldchk=ammonia.pbesvp.chk
 %NoSave
 Copying data from "ammonia.pbesvp.chk" to current chk file "/scr/martin/g09job.inter1516601223/Gau-10818.chk".
 ----------------------------------------------------------------------
 #P PBEPBE/def2SVP/W06 DenFit scf(xqc,MaxConventionalCycle=500) int(ult
 rafinegrid) gfinput gfoldprint iop(6/7=3) symmetry(loose) geom(allchec
 k) guess(read,only) output=wfn
 ----------------------------------------------------------------------
 1/29=7,38=1/1;
 2/12=2,17=4,18=3,40=1/2;
 3/5=43,7=101,11=2,14=-4,16=1,24=11,25=1,30=1,74=1009,75=-5,82=40,89=1,116=-2/1,2,3;
 4/5=1/1;
 6/7=3,28=1/1;
 99/5=2,6=100/99;
 Leave Link    1 at Mon Jan 22 15:07:03 2018, MaxMem=   536870912 cpu:         0.1
 (Enter /home/chemsoft/gaussian/g09e01/g09/l101.exe)
 Structure from the checkpoint file:  "/scr/martin/g09job.inter1516601223/Gau-10818.chk"
 -----------------------
 Ammonia DF-PBE/def2-SVP
 -----------------------
 Charge =  0 Multiplicity = 1
 Redundant internal coordinates found in file.
 N,0,-0.0000000001,0.,-0.0928731546
 H,0,-0.9383092879,-0.0000000003,0.3342586613
 H,0,0.4691546435,0.81259968,0.3342586613
 H,0,0.4691546441,-0.8125996797,0.3342586613
 Recover connectivity data from disk.
 NAtoms=      4 NQM=        4 NQMF=       0 NMMI=      0 NMMIF=      0
                NMic=       0 NMicF=      0.
                    Isotopes and Nuclear Properties:
 (Nuclear quadrupole moments (NQMom) in fm**2, nuclear magnetic moments (NMagM)
  in nuclear magnetons)

  Atom         1           2           3           4
 IAtWgt=          14           1           1           1
 AtmWgt=  14.0030740   1.0078250   1.0078250   1.0078250
 NucSpn=           2           1           1           1
 AtZEff=  -4.5500000  -1.0000000  -1.0000000  -1.0000000
 NQMom=    2.0440000   0.0000000   0.0000000   0.0000000
 NMagM=    0.4037610   2.7928460   2.7928460   2.7928460
 AtZNuc=   7.0000000   1.0000000   1.0000000   1.0000000
 Leave Link  101 at Mon Jan 22 15:07:04 2018, MaxMem=   536870912 cpu:         0.3
 (Enter /home/chemsoft/gaussian/g09e01/g09/l202.exe)
                          Input orientation:                          
 ---------------------------------------------------------------------
 Center     Atomic      Atomic             Coordinates (Angstroms)
 Number     Number       Type             X           Y           Z
 ---------------------------------------------------------------------
      1          7           0       -0.000000    0.000000   -0.092873
      2          1           0       -0.938309   -0.000000    0.334259
      3          1           0        0.469155    0.812600    0.334259
      4          1           0        0.469155   -0.812600    0.334259
 ---------------------------------------------------------------------
                    Distance matrix (angstroms):
                    1          2          3          4
     1  N    0.000000
     2  H    1.030954   0.000000
     3  H    1.030954   1.625199   0.000000
     4  H    1.030954   1.625199   1.625199   0.000000
 Stoichiometry    H3N
 Framework group  C3V[C3(N),3SGV(H)]
 Deg. of freedom     2
 Full point group                 C3V     NOp   6
 RotChk:  IX=0 Diff= 2.36D-16
 Largest Abelian subgroup         CS      NOp   2
 Largest concise Abelian subgroup CS      NOp   2
                         Standard orientation:                         
 ---------------------------------------------------------------------
 Center     Atomic      Atomic             Coordinates (Angstroms)
 Number     Number       Type             X           Y           Z
 ---------------------------------------------------------------------
      1          7           0        0.000000    0.000000    0.128140
      2          1           0        0.000000    0.938309   -0.298992
      3          1           0       -0.812600   -0.469155   -0.298992
      4          1           0        0.812600   -0.469155   -0.298992
 ---------------------------------------------------------------------
 Rotational constants (GHZ):    283.1846913    283.1846913    189.8535699
 Leave Link  202 at Mon Jan 22 15:07:04 2018, MaxMem=   536870912 cpu:         0.0
 (Enter /home/chemsoft/gaussian/g09e01/g09/l301.exe)
 Standard basis: def2SVP (5D, 7F)
 ======================================================================================================
                                       Pseudopotential Parameters
 ======================================================================================================
  Center     Atomic      Valence      Angular      Power
  Number     Number     Electrons     Momentum     of R      Exponent        Coefficient   SO-Coeffient
 ======================================================================================================
    1          7
                                   No pseudopotential on this center.
    2          1
                                   No pseudopotential on this center.
    3          1
                                   No pseudopotential on this center.
    4          1
                                   No pseudopotential on this center.
 ======================================================================================================
 Ernie: Thresh=  0.10000D-02 Tol=  0.10000D-05 Strict=F.
 AO basis set in the form of general basis input (Overlap normalization):
      1 0
 S   5 1.00       0.000000000000
      0.1712841585D+04 -0.5447799580D-02
      0.2576481268D+03 -0.4062717463D-01
      0.5845824585D+02 -0.1811196225D+00
      0.1619836791D+02 -0.4684397556D+00
      0.5005260081D+01 -0.4461684629D+00
 S   1 1.00       0.000000000000
      0.5873185657D+00  0.1000000000D+01
 S   1 1.00       0.000000000000
      0.1876459225D+00  0.1000000000D+01
 P   3 1.00       0.000000000000
      0.1357147023D+02 -0.5884811697D-01
      0.2925737287D+01 -0.3202462476D+00
      0.7992775075D+00 -0.7532822652D+00
 P   1 1.00       0.000000000000
      0.2195434803D+00  0.1000000000D+01
 D   1 1.00       0.000000000000
      0.1000000000D+01  0.1000000000D+01
 ****
      2 0
 S   3 1.00       0.000000000000
      0.1301070100D+02  0.3348548481D-01
      0.1962257200D+01  0.2347218709D+00
      0.4445379600D+00  0.8137702853D+00
 S   1 1.00       0.000000000000
      0.1219496200D+00  0.1000000000D+01
 P   1 1.00       0.000000000000
      0.8000000000D+00  0.1000000000D+01
 ****
      3 0
 S   3 1.00       0.000000000000
      0.1301070100D+02  0.3348548481D-01
      0.1962257200D+01  0.2347218709D+00
      0.4445379600D+00  0.8137702853D+00
 S   1 1.00       0.000000000000
      0.1219496200D+00  0.1000000000D+01
 P   1 1.00       0.000000000000
      0.8000000000D+00  0.1000000000D+01
 ****
      4 0
 S   3 1.00       0.000000000000
      0.1301070100D+02  0.3348548481D-01
      0.1962257200D+01  0.2347218709D+00
      0.4445379600D+00  0.8137702853D+00
 S   1 1.00       0.000000000000
      0.1219496200D+00  0.1000000000D+01
 P   1 1.00       0.000000000000
      0.8000000000D+00  0.1000000000D+01
 ****

 ***********************************************************************************************************************************
 *             ATOMIC CENTER             *        ATOMIC ORBITAL       *                     GAUSSIAN FUNCTIONS                    *
 ***********************************************************************************************************************************
 *                                       * FUNCTION    SHELL    SCALE  *                                                           *
 *    ATOM   X-COORD  Y-COORD  Z-COORD   *  NUMBER     TYPE     FACTOR *  EXPONENT    S-COEF      P-COEF      D-COEF      F-COEF   *
 ***********************************************************************************************************************************
 *     N      0.00000  0.00000  0.24215                                                                                            *
+                                                1   S           1.00                                                               
+                                                                      0.171284D+04-.103376D+010.000000D+000.000000D+000.000000D+00 
 *                                                                     0.257648D+03-.186207D+010.000000D+000.000000D+000.000000D+00*
 *                                                                     0.584582D+02-.272904D+010.000000D+000.000000D+000.000000D+00*
 *                                                                     0.161984D+02-.269567D+010.000000D+000.000000D+000.000000D+00*
 *                                                                     0.500526D+01-.106409D+010.000000D+000.000000D+000.000000D+00*
 *                                               2   S           1.00                                                              *
+                                                                      0.587319D+000.478151D+000.000000D+000.000000D+000.000000D+00 
 *                                               3   S           1.00                                                              *
+                                                                      0.187646D+000.203196D+000.000000D+000.000000D+000.000000D+00 
 *                                           4-  6   P           1.00                                                              *
+                                                                      0.135715D+020.000000D+00-.218502D+010.000000D+000.000000D+00 
 *                                                                     0.292574D+010.000000D+00-.174670D+010.000000D+000.000000D+00*
 *                                                                     0.799278D+000.000000D+00-.811465D+000.000000D+000.000000D+00*
 *                                           7-  9   P           1.00                                                              *
+                                                                      0.219543D+000.000000D+000.214211D+000.000000D+000.000000D+00 
 *                                          10- 14   D           1.00                                                              *
+                                                                      0.100000D+010.000000D+000.000000D+000.164592D+010.000000D+00 
 *---------------------------------------------------------------------------------------------------------------------------------*
 *     H      0.00000  1.77315 -0.56501                                                                                            *
+                                               15   S           1.00                                                               
+                                                                      0.130107D+020.163490D+000.000000D+000.000000D+000.000000D+00 
 *                                                                     0.196226D+010.277352D+000.000000D+000.000000D+000.000000D+00*
 *                                                                     0.444538D+000.315750D+000.000000D+000.000000D+000.000000D+00*
 *                                              16   S           1.00                                                              *
+                                                                      0.121950D+000.147077D+000.000000D+000.000000D+000.000000D+00 
 *                                          17- 19   P           1.00                                                              *
+                                                                      0.800000D+000.000000D+000.107846D+010.000000D+000.000000D+00 
 *---------------------------------------------------------------------------------------------------------------------------------*
 *     H     -1.53559 -0.88657 -0.56501                                                                                            *
+                                               20   S           1.00                                                               
+                                                                      0.130107D+020.163490D+000.000000D+000.000000D+000.000000D+00 
 *                                                                     0.196226D+010.277352D+000.000000D+000.000000D+000.000000D+00*
 *                                                                     0.444538D+000.315750D+000.000000D+000.000000D+000.000000D+00*
 *                                              21   S           1.00                                                              *
+                                                                      0.121950D+000.147077D+000.000000D+000.000000D+000.000000D+00 
 *                                          22- 24   P           1.00                                                              *
+                                                                      0.800000D+000.000000D+000.107846D+010.000000D+000.000000D+00 
 *---------------------------------------------------------------------------------------------------------------------------------*
 *     H      1.53559 -0.88657 -0.56501                                                                                            *
+                                               25   S           1.00                                                               
+                                                                      0.130107D+020.163490D+000.000000D+000.000000D+000.000000D+00 
 *                                                                     0.196226D+010.277352D+000.000000D+000.000000D+000.000000D+00*
 *                                                                     0.444538D+000.315750D+000.000000D+000.000000D+000.000000D+00*
 *                                              26   S           1.00                                                              *
+                                                                      0.121950D+000.147077D+000.000000D+000.000000D+000.000000D+00 
 *                                          27- 29   P           1.00                                                              *
+                                                                      0.800000D+000.000000D+000.107846D+010.000000D+000.000000D+00 
 ***********************************************************************************************************************************
 There are    20 symmetry adapted cartesian basis functions of A'  symmetry.
 There are    10 symmetry adapted cartesian basis functions of A"  symmetry.
 There are    19 symmetry adapted basis functions of A'  symmetry.
 There are    10 symmetry adapted basis functions of A"  symmetry.
    29 basis functions,    46 primitive gaussians,    30 cartesian basis functions
     5 alpha electrons        5 beta electrons
       nuclear repulsion energy        11.7558900944 Hartrees.
 IExCor= 1009 DFT=T Ex=PBE Corr=PBE ExCW=0 ScaHFX=  0.000000
 ScaDFX=  1.000000  1.000000  1.000000  1.000000 ScalE2=  1.000000  1.000000
 IRadAn=      5 IRanWt=     -1 IRanGd=            0 ICorTp=0 IEmpDi=  4
 NAtoms=    4 NActive=    4 NUniq=    2 SFac= 4.00D+00 NAtFMM=   60 NAOKFM=F Big=F
 Integral buffers will be    131072 words long.
 Raffenetti 2 integral format.
 Two-electron integral symmetry is turned on.
 Standard density basis: W06 (5D, 7F)
    82 Density fitting functions
 Density basis set in the form of general basis input (Coulomb normalization):
      1 0
 S   7 1.00       0.000000000000
      0.2542940178D+04  0.1572679885D-02
      0.1029547295D+04  0.3977044477D-02
      0.4249053546D+03  0.1953766111D-01
      0.1784573708D+03  0.7476264413D-01
      0.7613627420D+02  0.2189767433D+00
      0.3293386530D+02  0.4216718799D+00
      0.1441554360D+02  0.2964029094D+00
 S   1 1.00       0.000000000000
      0.6371889100D+01 -0.1000000000D+01
 S   1 1.00       0.000000000000
      0.2838174200D+01  0.1000000000D+01
 S   1 1.00       0.000000000000
      0.1271179300D+01  0.1000000000D+01
 S   1 1.00       0.000000000000
      0.5712407000D+00  0.1000000000D+01
 S   1 1.00       0.000000000000
      0.2569887000D+00  0.1000000000D+01
 P   2 1.00       0.000000000000
      0.1789759900D+02 -0.1198132470D+01
      0.6534631900D+01  0.2493564618D+00
 P   1 1.00       0.000000000000
      0.2352364500D+01  0.1000000000D+01
 P   1 1.00       0.000000000000
      0.8397377000D+00  0.1000000000D+01
 P   1 1.00       0.000000000000
      0.2989335000D+00  0.1000000000D+01
 D   2 1.00       0.000000000000
      0.7690987000D+01  0.9918940482D-01
      0.2304497200D+01  0.9126124820D+00
 D   1 1.00       0.000000000000
      0.8403987000D+00  0.1000000000D+01
 D   1 1.00       0.000000000000
      0.3303797000D+00  0.1000000000D+01
 F   2 1.00       0.000000000000
      0.2333107600D+01  0.4521076083D+00
      0.8446137000D+00  0.6081562343D+00
 G   1 1.00       0.000000000000
      0.1403770000D+01 -0.1000000000D+01
 ****
      2 0
 S   3 1.00       0.000000000000
      0.1567529270D+02  0.3261158972D-01
      0.3606357800D+01  0.2298046837D+00
      0.1208001600D+01  0.7572083240D+00
 S   1 1.00       0.000000000000
      0.4726794000D+00  0.1000000000D+01
 S   1 1.00       0.000000000000
      0.2018100000D+00  0.1000000000D+01
 P   2 1.00       0.000000000000
      0.2028136500D+01  0.3618361986D+00
      0.5358730000D+00  0.7039303088D+00
 D   1 1.00       0.000000000000
      0.2216512400D+01  0.1000000000D+01
 ****
      3 0
 S   3 1.00       0.000000000000
      0.1567529270D+02  0.3261158972D-01
      0.3606357800D+01  0.2298046837D+00
      0.1208001600D+01  0.7572083240D+00
 S   1 1.00       0.000000000000
      0.4726794000D+00  0.1000000000D+01
 S   1 1.00       0.000000000000
      0.2018100000D+00  0.1000000000D+01
 P   2 1.00       0.000000000000
      0.2028136500D+01  0.3618361986D+00
      0.5358730000D+00  0.7039303088D+00
 D   1 1.00       0.000000000000
      0.2216512400D+01  0.1000000000D+01
 ****
      4 0
 S   3 1.00       0.000000000000
      0.1567529270D+02  0.3261158972D-01
      0.3606357800D+01  0.2298046837D+00
      0.1208001600D+01  0.7572083240D+00
 S   1 1.00       0.000000000000
      0.4726794000D+00  0.1000000000D+01
 S   1 1.00       0.000000000000
      0.2018100000D+00  0.1000000000D+01
 P   2 1.00       0.000000000000
      0.2028136500D+01  0.3618361986D+00
      0.5358730000D+00  0.7039303088D+00
 D   1 1.00       0.000000000000
      0.2216512400D+01  0.1000000000D+01
 ****

 There are    82 symmetry adapted density basis functions of A   symmetry.
 Leave Link  301 at Mon Jan 22 15:07:04 2018, MaxMem=   536870912 cpu:         0.2
 (Enter /home/chemsoft/gaussian/g09e01/g09/l302.exe)
 NPDir=0 NMtPBC=     1 NCelOv=     1 NCel=       1 NClECP=     1 NCelD=      1
         NCelK=      1 NCelE2=     1 NClLst=     1 CellRange=     0.0.
 One-electron integrals computed using PRISM.
 One-electron integral symmetry used in STVInt
   6 Symmetry operations used in ECPInt.
 ECPInt:  NShTT=     120 NPrTT=     400 LenC2=     121 LenP2D=     394.
 LDataN:  DoStor=T MaxTD1= 4 Len=   56
 NBasis=    29 RedAO= T EigKep=  3.54D-02  NBF=    19    10
 NBsUse=    29 1.00D-06 EigRej= -1.00D+00 NBFU=    19    10
 Precomputing XC quadrature grid using
 IXCGrd= 4 IRadAn=           5 IRanWt=          -1 IRanGd=           0 AccXCQ= 0.00D+00.
 Generated NRdTot=       0 NPtTot=           0 NUsed=           0 NTot=          32
 NSgBfM=    30    30    30    30    30 MxSgAt=     4 MxSgA2=     4.
 Leave Link  302 at Mon Jan 22 15:07:04 2018, MaxMem=   536870912 cpu:         0.3
 (Enter /home/chemsoft/gaussian/g09e01/g09/l303.exe)
 DipDrv:  MaxL=1.
 Leave Link  303 at Mon Jan 22 15:07:05 2018, MaxMem=   536870912 cpu:         0.1
 (Enter /home/chemsoft/gaussian/g09e01/g09/l401.exe)
 Initial guess from the checkpoint file:  "/scr/martin/g09job.inter1516601223/Gau-10818.chk"
 B after Tr=     0.000000    0.000000    0.000000
         Rot=    1.000000    0.000000    0.000000    0.000000 Ang=   0.00 deg.
 Guess basis will be translated and rotated to current coordinates.
 JPrj=2 DoOrth=T DoCkMO=T.
 Initial guess orbital symmetries:
       Occupied  (A1) (A1) (E) (E) (A1)
       Virtual   (A1) (E) (E) (E) (E) (A1) (A1) (E) (E) (A1) (E)
                 (E) (A2) (A1) (E) (E) (E) (E) (A1) (E) (E) (A1)
                 (E) (E)
 The electronic state of the initial guess is 1-A1.
 Leave Link  401 at Mon Jan 22 15:07:05 2018, MaxMem=   536870912 cpu:         0.2
 (Enter /home/chemsoft/gaussian/g09e01/g09/l601.exe)
 Copying SCF densities to generalized density rwf, IOpCl= 0 IROHF=0.

 **********************************************************************

            Population analysis using the SCF density.

 **********************************************************************

 Orbital symmetries:
       Occupied  (A1) (A1) (E) (E) (A1)
       Virtual   (A1) (E) (E) (E) (E) (A1) (A1) (E) (E) (A1) (E)
                 (E) (A2) (A1) (E) (E) (E) (E) (A1) (E) (E) (A1)
                 (E) (E)
 The electronic state is 1-A1.
 Alpha  occ. eigenvalues --  -13.96883  -0.75460  -0.39482  -0.39482  -0.20552
 Alpha virt. eigenvalues --    0.03108   0.11326   0.11326   0.47180   0.47180
 Alpha virt. eigenvalues --    0.59637   0.69839   0.79093   0.79093   0.89348
 Alpha virt. eigenvalues --    1.13490   1.13490   1.54707   1.59271   1.73736
 Alpha virt. eigenvalues --    1.73736   1.99180   1.99180   2.39010   2.69912
 Alpha virt. eigenvalues --    2.69912   2.75243   3.23791   3.23791
     Molecular Orbital Coefficients:
                           1         2         3         4         5
                        (A1)--O   (A1)--O   (E)--O    (E)--O    (A1)--O
     Eigenvalues --   -13.96883  -0.75460  -0.39482  -0.39482  -0.20552
   1 1   N  1S          0.98807   0.25881  -0.00000   0.00000  -0.10623
   2        2S         -0.04541   0.51812  -0.00000   0.00000  -0.21626
   3        3S          0.01860   0.17026   0.00000   0.00000  -0.35135
   4        4PX         0.00000   0.00000   0.00000   0.46650   0.00000
   5        4PY         0.00000  -0.00000   0.46650   0.00000   0.00000
   6        4PZ        -0.00404   0.11839   0.00000   0.00000   0.53665
   7        5PX         0.00000   0.00000   0.00000  -0.19203   0.00000
   8        5PY         0.00000  -0.00000  -0.19203   0.00000   0.00000
   9        5PZ        -0.00049  -0.00769  -0.00000   0.00000  -0.42749
  10        6D 0        0.00130  -0.00135  -0.00000   0.00000   0.02250
  11        6D+1        0.00000   0.00000   0.00000   0.02152   0.00000
  12        6D-1       -0.00000   0.00000   0.02152   0.00000   0.00000
  13        6D+2       -0.00000   0.00000   0.00838   0.00000   0.00000
  14        6D-2        0.00000   0.00000   0.00000   0.00838   0.00000
  15 2   H  1S          0.00341   0.19441  -0.37416   0.00000   0.09367
  16        2S         -0.00297   0.02519  -0.15967   0.00000   0.06441
  17        3PX         0.00000   0.00000   0.00000  -0.02214   0.00000
  18        3PY        -0.00341  -0.02677   0.01642   0.00000  -0.01002
  19        3PZ         0.00155   0.00428  -0.01169   0.00000  -0.02250
  20 3   H  1S          0.00341   0.19441   0.18708   0.32403   0.09367
  21        2S         -0.00297   0.02519   0.07984   0.13828   0.06441
  22        3PX         0.00296   0.02318   0.01670   0.00678   0.00868
  23        3PY         0.00171   0.01338  -0.01250   0.01670   0.00501
  24        3PZ         0.00155   0.00428   0.00584   0.01012  -0.02250
  25 4   H  1S          0.00341   0.19441   0.18708  -0.32403   0.09367
  26        2S         -0.00297   0.02519   0.07984  -0.13828   0.06441
  27        3PX        -0.00296  -0.02318  -0.01670   0.00678  -0.00868
  28        3PY         0.00171   0.01338  -0.01250  -0.01670   0.00501
  29        3PZ         0.00155   0.00428   0.00584  -0.01012  -0.02250
                           6         7         8         9        10
                        (A1)--V   (E)--V    (E)--V    (E)--V    (E)--V
     Eigenvalues --     0.03108   0.11326   0.11326   0.47180   0.47180
   1 1   N  1S          0.12780   0.00000   0.00000   0.00000  -0.00000
   2        2S          0.22057   0.00000   0.00000   0.00000  -0.00000
   3        3S          1.42543   0.00000   0.00000   0.00000   0.00000
   4        4PX         0.00000   0.00000  -0.40331  -0.15188   0.00000
   5        4PY        -0.00000   0.40331   0.00000   0.00000   0.15188
   6        4PZ         0.20616   0.00000   0.00000   0.00000  -0.00000
   7        5PX         0.00000   0.00000   0.76928   0.51267   0.00000
   8        5PY         0.00000  -0.76928   0.00000   0.00000  -0.51267
   9        5PZ        -0.36075  -0.00000   0.00000   0.00000  -0.00000
  10        6D 0        0.00521  -0.00000   0.00000   0.00000  -0.00000
  11        6D+1        0.00000   0.00000  -0.00860   0.06726   0.00000
  12        6D-1       -0.00000   0.00860   0.00000   0.00000  -0.06726
  13        6D+2        0.00000  -0.00747   0.00000   0.00000  -0.09245
  14        6D-2        0.00000   0.00000   0.00747   0.09245   0.00000
  15 2   H  1S         -0.08688   0.13879   0.00000   0.00000   1.06689
  16        2S         -0.75815   1.53925   0.00000   0.00000  -0.83164
  17        3PX         0.00000   0.00000   0.00728   0.08983   0.00000
  18        3PY        -0.00621   0.00636   0.00000   0.00000   0.05113
  19        3PZ         0.00143  -0.00708   0.00000   0.00000  -0.05122
  20 3   H  1S         -0.08688  -0.06940   0.12020   0.92395  -0.53344
  21        2S         -0.75815  -0.76963   1.33303  -0.72022   0.41582
  22        3PX         0.00538   0.00591  -0.00295  -0.01589   0.06104
  23        3PY         0.00310  -0.00387  -0.00591  -0.06104  -0.05459
  24        3PZ         0.00143   0.00354  -0.00613  -0.04436   0.02561
  25 4   H  1S         -0.08688  -0.06940  -0.12020  -0.92395  -0.53344
  26        2S         -0.75815  -0.76963  -1.33303   0.72022   0.41582
  27        3PX        -0.00538  -0.00591  -0.00295  -0.01589  -0.06104
  28        3PY         0.00310  -0.00387   0.00591   0.06104  -0.05459
  29        3PZ         0.00143   0.00354   0.00613   0.04436   0.02561
                          11        12        13        14        15
                        (A1)--V   (A1)--V   (E)--V    (E)--V    (A1)--V
     Eigenvalues --     0.59637   0.69839   0.79093   0.79093   0.89348
   1 1   N  1S         -0.17979  -0.16707   0.00000  -0.00000  -0.18172
   2        2S         -0.83179  -0.84007   0.00000  -0.00000  -1.49884
   3        3S          1.31909   0.77245   0.00000   0.00000   3.58297
   4        4PX         0.00000   0.00000   0.89308   0.00000   0.00000
   5        4PY        -0.00000  -0.00000   0.00000   0.89308  -0.00000
   6        4PZ        -0.39932   0.84840   0.00000   0.00000  -0.24328
   7        5PX         0.00000   0.00000   1.73814   0.00000   0.00000
   8        5PY        -0.00000  -0.00000   0.00000   1.73814  -0.00000
   9        5PZ        -0.30971   0.96266   0.00000   0.00000  -0.91658
  10        6D 0       -0.07469   0.00045   0.00000   0.00000   0.10124
  11        6D+1        0.00000   0.00000  -0.03453   0.00000   0.00000
  12        6D-1        0.00000   0.00000   0.00000  -0.03453  -0.00000
  13        6D+2        0.00000  -0.00000   0.00000  -0.03725   0.00000
  14        6D-2        0.00000   0.00000  -0.03725   0.00000   0.00000
  15 2   H  1S          0.57566   0.16421   0.00000  -0.07298  -0.65547
  16        2S         -0.63775  -0.11727   0.00000  -1.24234  -0.54750
  17        3PX         0.00000   0.00000   0.00682   0.00000   0.00000
  18        3PY         0.17343  -0.01368   0.00000   0.20003  -0.01013
  19        3PZ         0.00163   0.01077   0.00000  -0.09785  -0.16732
  20 3   H  1S          0.57566   0.16421   0.06320   0.03649  -0.65547
  21        2S         -0.63775  -0.11727   1.07590   0.62117  -0.54750
  22        3PX        -0.15020   0.01185   0.15173   0.08366   0.00877
  23        3PY        -0.08672   0.00684   0.08366   0.05513   0.00506
  24        3PZ         0.00163   0.01077   0.08474   0.04892  -0.16732
  25 4   H  1S          0.57566   0.16421  -0.06320   0.03649  -0.65547
  26        2S         -0.63775  -0.11727  -1.07590   0.62117  -0.54750
  27        3PX         0.15020  -0.01185   0.15173  -0.08366  -0.00877
  28        3PY        -0.08672   0.00684  -0.08366   0.05513   0.00506
  29        3PZ         0.00163   0.01077  -0.08474   0.04892  -0.16732
                          16        17        18        19        20
                        (E)--V    (E)--V    (A2)--V   (A1)--V   (E)--V
     Eigenvalues --     1.13490   1.13490   1.54707   1.59271   1.73736
   1 1   N  1S          0.00000   0.00000   0.00000  -0.09236   0.00000
   2        2S          0.00000   0.00000   0.00000  -0.86905   0.00000
   3        3S          0.00000  -0.00000   0.00000   1.83549   0.00000
   4        4PX         0.01806   0.00000   0.00000   0.00000   0.00337
   5        4PY         0.00000  -0.01806   0.00000   0.00000   0.00000
   6        4PZ         0.00000   0.00000   0.00000  -0.09964   0.00000
   7        5PX        -0.33898   0.00000   0.00000   0.00000   0.92233
   8        5PY         0.00000   0.33898   0.00000  -0.00000   0.00000
   9        5PZ         0.00000   0.00000   0.00000  -1.06743   0.00000
  10        6D 0        0.00000  -0.00000   0.00000  -0.30739   0.00000
  11        6D+1       -0.19730   0.00000  -0.00000   0.00000   0.09965
  12        6D-1        0.00000   0.19730   0.00000   0.00000   0.00000
  13        6D+2        0.00000  -0.16294   0.00000   0.00000   0.00000
  14        6D-2        0.16294   0.00000   0.00000   0.00000  -0.05412
  15 2   H  1S          0.00000  -0.16015   0.00000  -0.54103   0.00000
  16        2S          0.00000  -0.05984   0.00000  -0.19821   0.00000
  17        3PX         0.49131   0.00000   0.61189   0.00000  -0.63566
  18        3PY         0.00000   0.21663   0.00000   0.07177   0.00000
  19        3PZ         0.00000   0.44361   0.00000   0.51752   0.00000
  20 3   H  1S         -0.13869   0.08007  -0.00000  -0.54103   0.34090
  21        2S         -0.05182   0.02992   0.00000  -0.19821   0.15708
  22        3PX        -0.03965   0.30655  -0.30595  -0.06215  -0.38335
  23        3PY        -0.30655  -0.31433   0.52991  -0.03588   0.14567
  24        3PZ         0.38418  -0.22180  -0.00000   0.51752   0.53314
  25 4   H  1S          0.13869   0.08007   0.00000  -0.54103  -0.34090
  26        2S          0.05182   0.02992  -0.00000  -0.19821  -0.15708
  27        3PX        -0.03965  -0.30655  -0.30595   0.06215  -0.38335
  28        3PY         0.30655  -0.31433  -0.52991  -0.03588  -0.14567
  29        3PZ        -0.38418  -0.22180   0.00000   0.51752  -0.53314
                          21        22        23        24        25
                        (E)--V    (E)--V    (E)--V    (A1)--V   (E)--V
     Eigenvalues --     1.73736   1.99180   1.99180   2.39010   2.69912
   1 1   N  1S         -0.00000   0.00000   0.00000   0.16693   0.00000
   2        2S         -0.00000   0.00000   0.00000   0.69871   0.00000
   3        3S          0.00000   0.00000  -0.00000   1.72696   0.00000
   4        4PX         0.00000   0.68019   0.00000   0.00000   0.02689
   5        4PY         0.00337   0.00000  -0.68019  -0.00000   0.00000
   6        4PZ        -0.00000   0.00000   0.00000   0.47886   0.00000
   7        5PX         0.00000  -0.03777   0.00000   0.00000   0.36920
   8        5PY         0.92233   0.00000   0.03777   0.00000   0.00000
   9        5PZ        -0.00000   0.00000   0.00000  -0.88023   0.00000
  10        6D 0       -0.00000   0.00000  -0.00000   0.41142   0.00000
  11        6D+1        0.00000  -0.19889   0.00000   0.00000  -0.75831
  12        6D-1        0.09965   0.00000   0.19889  -0.00000   0.00000
  13        6D+2       -0.05412   0.00000   0.21906   0.00000   0.00000
  14        6D-2        0.00000  -0.21906   0.00000   0.00000   0.78532
  15 2   H  1S         -0.39364   0.00000  -0.06068  -0.69149   0.00000
  16        2S         -0.18138   0.00000  -0.38296  -0.31605   0.00000
  17        3PX         0.00000   0.05537   0.00000   0.00000  -0.54961
  18        3PY        -0.29925   0.00000   0.78279   0.80113   0.00000
  19        3PZ        -0.61562   0.00000  -0.40650   0.08641   0.00000
  20 3   H  1S          0.19682  -0.05255   0.03034  -0.69149   0.09771
  21        2S          0.09069  -0.33165   0.19148  -0.31605   0.07629
  22        3PX         0.14567  -0.57325   0.36293  -0.69380  -0.06380
  23        3PY        -0.55155  -0.36293   0.15417  -0.40057   0.28048
  24        3PZ         0.30781  -0.35204   0.20325   0.08641  -0.23367
  25 4   H  1S          0.19682   0.05255   0.03034  -0.69149  -0.09771
  26        2S          0.09069   0.33165   0.19148  -0.31605  -0.07629
  27        3PX        -0.14567  -0.57325  -0.36293   0.69380  -0.06380
  28        3PY        -0.55155   0.36293   0.15417  -0.40057  -0.28048
  29        3PZ         0.30781   0.35204   0.20325   0.08641   0.23367
                          26        27        28        29
                        (E)--V    (A1)--V   (E)--V    (E)--V
     Eigenvalues --     2.69912   2.75243   3.23791   3.23791
   1 1   N  1S          0.00000   0.14488   0.00000   0.00000
   2        2S          0.00000   0.66819   0.00000   0.00000
   3        3S          0.00000   1.22036   0.00000   0.00000
   4        4PX         0.00000   0.00000  -0.67180   0.00000
   5        4PY         0.02689  -0.00000   0.00000   0.67180
   6        4PZ         0.00000   0.37488   0.00000   0.00000
   7        5PX         0.00000   0.00000   1.00378   0.00000
   8        5PY         0.36920  -0.00000   0.00000  -1.00378
   9        5PZ         0.00000  -0.17633   0.00000  -0.00000
  10        6D 0       -0.00000  -0.99782   0.00000  -0.00000
  11        6D+1        0.00000   0.00000  -0.95617   0.00000
  12        6D-1       -0.75831   0.00000   0.00000   0.95617
  13        6D+2        0.78532  -0.00000   0.00000   0.97261
  14        6D-2        0.00000   0.00000  -0.97261   0.00000
  15 2   H  1S         -0.11283  -0.56278   0.00000   1.14257
  16        2S         -0.08809  -0.20207   0.00000   0.42051
  17        3PX         0.00000   0.00000  -0.04950   0.00000
  18        3PY         0.09814   0.43030   0.00000  -0.92469
  19        3PZ         0.26982  -0.49081   0.00000   0.42271
  20 3   H  1S          0.05641  -0.56278   0.98949  -0.57128
  21        2S          0.04405  -0.20207   0.36417  -0.21026
  22        3PX         0.28048  -0.37265   0.68114  -0.42184
  23        3PY        -0.38767  -0.21515   0.42184  -0.19405
  24        3PZ        -0.13491  -0.49081   0.36608  -0.21136
  25 4   H  1S          0.05641  -0.56278  -0.98949  -0.57128
  26        2S          0.04405  -0.20207  -0.36417  -0.21026
  27        3PX        -0.28048   0.37265   0.68114   0.42184
  28        3PY        -0.38767  -0.21515  -0.42184  -0.19405
  29        3PZ        -0.13491  -0.49081  -0.36608  -0.21136
     Density Matrix:
                           1         2         3         4         5
   1 1   N  1S          2.10910
   2        2S          0.22440   0.63457
   3        3S          0.19953   0.32671   0.30556
   4        4PX         0.00000   0.00000   0.00000   0.43525
   5        4PY         0.00000  -0.00000   0.00000   0.00000   0.43525
   6        4PZ        -0.06070  -0.10906  -0.33694   0.00000   0.00000
   7        5PX         0.00000   0.00000   0.00000  -0.17916   0.00000
   8        5PY        -0.00000  -0.00000  -0.00000   0.00000  -0.17916
   9        5PZ         0.08587   0.17697   0.29776   0.00000  -0.00000
  10        6D 0       -0.00291  -0.01125  -0.01622   0.00000  -0.00000
  11        6D+1        0.00000   0.00000   0.00000   0.02008   0.00000
  12        6D-1       -0.00000   0.00000   0.00000   0.00000   0.02008
  13        6D+2       -0.00000   0.00000  -0.00000   0.00000   0.00782
  14        6D-2        0.00000   0.00000   0.00000   0.00782   0.00000
  15 2   H  1S          0.08747   0.16064   0.00051   0.00000  -0.34910
  16        2S         -0.00652  -0.00149  -0.03679   0.00000  -0.14897
  17        3PX         0.00000   0.00000   0.00000  -0.02066   0.00000
  18        3PY        -0.01847  -0.02309  -0.00220   0.00000   0.01532
  19        3PZ         0.01006   0.01403   0.01733   0.00000  -0.01090
  20 3   H  1S          0.08747   0.16064   0.00051   0.30233   0.17455
  21        2S         -0.00652  -0.00149  -0.03679   0.12902   0.07449
  22        3PX         0.01600   0.02000   0.00191   0.00632   0.01558
  23        3PY         0.00924   0.01155   0.00110   0.01558  -0.01166
  24        3PZ         0.01006   0.01403   0.01733   0.00944   0.00545
  25 4   H  1S          0.08747   0.16064   0.00051  -0.30233   0.17455
  26        2S         -0.00652  -0.00149  -0.03679  -0.12902   0.07449
  27        3PX        -0.01600  -0.02000  -0.00191   0.00632  -0.01558
  28        3PY         0.00924   0.01155   0.00110  -0.01558  -0.01166
  29        3PZ         0.01006   0.01403   0.01733  -0.00944   0.00545
                           6         7         8         9        10
   6        4PZ         0.60406
   7        5PX         0.00000   0.07375
   8        5PY        -0.00000   0.00000   0.07375
   9        5PZ        -0.46064   0.00000   0.00000   0.36561
  10        6D 0        0.02381   0.00000   0.00000  -0.01921   0.00102
  11        6D+1        0.00000  -0.00827   0.00000   0.00000   0.00000
  12        6D-1        0.00000   0.00000  -0.00827  -0.00000  -0.00000
  13        6D+2        0.00000   0.00000  -0.00322  -0.00000  -0.00000
  14        6D-2        0.00000  -0.00322   0.00000   0.00000   0.00000
  15 2   H  1S          0.14655   0.00000   0.14370  -0.08308   0.00370
  16        2S          0.07512   0.00000   0.06132  -0.05546   0.00282
  17        3PX         0.00000   0.00850   0.00000   0.00000   0.00000
  18        3PY        -0.01707   0.00000  -0.00630   0.00898  -0.00039
  19        3PZ        -0.02315   0.00000   0.00449   0.01917  -0.00102
  20 3   H  1S          0.14655  -0.12445  -0.07185  -0.08308   0.00370
  21        2S          0.07512  -0.05311  -0.03066  -0.05546   0.00282
  22        3PX         0.01478  -0.00260  -0.00641  -0.00778   0.00034
  23        3PY         0.00853  -0.00641   0.00480  -0.00449   0.00019
  24        3PZ        -0.02315  -0.00389  -0.00224   0.01917  -0.00102
  25 4   H  1S          0.14655   0.12445  -0.07185  -0.08308   0.00370
  26        2S          0.07512   0.05311  -0.03066  -0.05546   0.00282
  27        3PX        -0.01478  -0.00260   0.00641   0.00778  -0.00034
  28        3PY         0.00853   0.00641   0.00480  -0.00449   0.00019
  29        3PZ        -0.02315   0.00389  -0.00224   0.01917  -0.00102
                          11        12        13        14        15
  11        6D+1        0.00093
  12        6D-1        0.00000   0.00093
  13        6D+2        0.00000   0.00036   0.00014
  14        6D-2        0.00036   0.00000   0.00000   0.00014
  15 2   H  1S          0.00000  -0.01611  -0.00627   0.00000   0.37316
  16        2S          0.00000  -0.00687  -0.00268   0.00000   0.14133
  17        3PX        -0.00095   0.00000   0.00000  -0.00037   0.00000
  18        3PY         0.00000   0.00071   0.00028   0.00000  -0.02459
  19        3PZ         0.00000  -0.00050  -0.00020   0.00000   0.00621
  20 3   H  1S          0.01395   0.00805   0.00314   0.00543  -0.04683
  21        2S          0.00595   0.00344   0.00134   0.00232  -0.03790
  22        3PX         0.00029   0.00072   0.00028   0.00011  -0.00183
  23        3PY         0.00072  -0.00054  -0.00021   0.00028   0.01551
  24        3PZ         0.00044   0.00025   0.00010   0.00017  -0.00691
  25 4   H  1S         -0.01395   0.00805   0.00314  -0.00543  -0.04683
  26        2S         -0.00595   0.00344   0.00134  -0.00232  -0.03790
  27        3PX         0.00029  -0.00072  -0.00028   0.00011   0.00183
  28        3PY        -0.00072  -0.00054  -0.00021  -0.00028   0.01551
  29        3PZ        -0.00044   0.00025   0.00010  -0.00017  -0.00691
                          16        17        18        19        20
  16        2S          0.06057
  17        3PX         0.00000   0.00098
  18        3PY        -0.00786   0.00000   0.00220
  19        3PZ         0.00104   0.00000  -0.00017   0.00133
  20 3   H  1S         -0.03790  -0.01435  -0.00617  -0.00691   0.37316
  21        2S         -0.01591  -0.00612   0.00000  -0.00456   0.14133
  22        3PX        -0.00306  -0.00030  -0.00089  -0.00057   0.02130
  23        3PY         0.00530  -0.00074  -0.00124   0.00019   0.01230
  24        3PZ        -0.00456  -0.00045   0.00040   0.00092   0.00621
  25 4   H  1S         -0.03790   0.01435  -0.00617  -0.00691  -0.04683
  26        2S         -0.01591   0.00612   0.00000  -0.00456  -0.03790
  27        3PX         0.00306  -0.00030   0.00089   0.00057  -0.01251
  28        3PY         0.00530   0.00074  -0.00124   0.00019  -0.00934
  29        3PZ        -0.00456   0.00045   0.00040   0.00092  -0.00691
                          21        22        23        24        25
  21        2S          0.06057
  22        3PX         0.00681   0.00189
  23        3PY         0.00393   0.00053   0.00128
  24        3PZ         0.00104   0.00015   0.00009   0.00133
  25 4   H  1S         -0.03790   0.01251  -0.00934  -0.00691   0.37316
  26        2S         -0.01591   0.00306  -0.00530  -0.00456   0.14133
  27        3PX        -0.00306  -0.00171  -0.00007   0.00012  -0.02130
  28        3PY        -0.00530   0.00007   0.00017  -0.00059   0.01230
  29        3PZ        -0.00456  -0.00012  -0.00059   0.00092   0.00621
                          26        27        28        29
  26        2S          0.06057
  27        3PX        -0.00681   0.00189
  28        3PY         0.00393  -0.00053   0.00128
  29        3PZ         0.00104  -0.00015   0.00009   0.00133
    Full Mulliken population analysis:
                           1         2         3         4         5
   1 1   N  1S          2.10910
   2        2S         -0.07536   0.63457
   3        3S         -0.03095   0.25908   0.30556
   4        4PX         0.00000   0.00000   0.00000   0.43525
   5        4PY         0.00000   0.00000   0.00000   0.00000   0.43525
   6        4PZ         0.00000   0.00000   0.00000   0.00000   0.00000
   7        5PX         0.00000   0.00000   0.00000   0.09373   0.00000
   8        5PY         0.00000   0.00000   0.00000   0.00000   0.09373
   9        5PZ         0.00000   0.00000   0.00000   0.00000   0.00000
  10        6D 0        0.00000   0.00000   0.00000   0.00000   0.00000
  11        6D+1        0.00000   0.00000   0.00000   0.00000   0.00000
  12        6D-1        0.00000   0.00000   0.00000   0.00000   0.00000
  13        6D+2        0.00000   0.00000   0.00000   0.00000   0.00000
  14        6D-2        0.00000   0.00000   0.00000   0.00000   0.00000
  15 2   H  1S         -0.00414   0.05472   0.00025   0.00000   0.10171
  16        2S          0.00047  -0.00066  -0.02685   0.00000   0.01946
  17        3PX         0.00000   0.00000   0.00000   0.00379   0.00000
  18        3PY        -0.00140   0.00842   0.00052   0.00000   0.00467
  19        3PZ        -0.00035   0.00233   0.00186   0.00000   0.00243
  20 3   H  1S         -0.00414   0.05472   0.00025   0.07628   0.02543
  21        2S          0.00047  -0.00066  -0.02685   0.01460   0.00487
  22        3PX        -0.00105   0.00632   0.00039   0.00116   0.00330
  23        3PY        -0.00035   0.00211   0.00013   0.00330   0.00072
  24        3PZ        -0.00035   0.00233   0.00186   0.00182   0.00061
  25 4   H  1S         -0.00414   0.05472   0.00025   0.07628   0.02543
  26        2S          0.00047  -0.00066  -0.02685   0.01460   0.00487
  27        3PX        -0.00105   0.00632   0.00039   0.00116   0.00330
  28        3PY        -0.00035   0.00211   0.00013   0.00330   0.00072
  29        3PZ        -0.00035   0.00233   0.00186   0.00182   0.00061
                           6         7         8         9        10
   6        4PZ         0.60406
   7        5PX         0.00000   0.07375
   8        5PY         0.00000   0.00000   0.07375
   9        5PZ         0.24098   0.00000   0.00000   0.36561
  10        6D 0        0.00000   0.00000   0.00000   0.00000   0.00102
  11        6D+1        0.00000   0.00000   0.00000   0.00000   0.00000
  12        6D-1        0.00000   0.00000   0.00000   0.00000   0.00000
  13        6D+2        0.00000   0.00000   0.00000   0.00000   0.00000
  14        6D-2        0.00000   0.00000   0.00000   0.00000   0.00000
  15 2   H  1S          0.01944   0.00000   0.07952   0.02093  -0.00023
  16        2S          0.00447   0.00000   0.02535   0.01044  -0.00002
  17        3PX         0.00000   0.00271   0.00000   0.00000   0.00000
  18        3PY         0.00380   0.00000   0.00017   0.00141   0.00001
  19        3PZ         0.00191   0.00000   0.00071   0.00474   0.00022
  20 3   H  1S          0.01944   0.05964   0.01988   0.02093  -0.00023
  21        2S          0.00447   0.01901   0.00634   0.01044  -0.00002
  22        3PX         0.00285  -0.00016   0.00096   0.00106   0.00001
  23        3PY         0.00095   0.00096   0.00112   0.00035   0.00000
  24        3PZ         0.00191   0.00053   0.00018   0.00474   0.00022
  25 4   H  1S          0.01944   0.05964   0.01988   0.02093  -0.00023
  26        2S          0.00447   0.01901   0.00634   0.01044  -0.00002
  27        3PX         0.00285  -0.00016   0.00096   0.00106   0.00001
  28        3PY         0.00095   0.00096   0.00112   0.00035   0.00000
  29        3PZ         0.00191   0.00053   0.00018   0.00474   0.00022
                          11        12        13        14        15
  11        6D+1        0.00093
  12        6D-1        0.00000   0.00093
  13        6D+2        0.00000   0.00000   0.00014
  14        6D-2        0.00000   0.00000   0.00000   0.00014
  15 2   H  1S          0.00000   0.00270   0.00115   0.00000   0.37316
  16        2S          0.00000   0.00015   0.00006   0.00000   0.09678
  17        3PX         0.00012   0.00000   0.00000  -0.00011   0.00000
  18        3PY         0.00000   0.00017   0.00003   0.00000   0.00000
  19        3PZ         0.00000  -0.00006   0.00004   0.00000   0.00000
  20 3   H  1S          0.00202   0.00067   0.00029   0.00086  -0.00422
  21        2S          0.00011   0.00004   0.00002   0.00005  -0.01032
  22        3PX         0.00004   0.00011  -0.00002   0.00002  -0.00010
  23        3PY         0.00011   0.00002  -0.00005  -0.00002   0.00141
  24        3PZ        -0.00005  -0.00002   0.00001   0.00003   0.00000
  25 4   H  1S          0.00202   0.00067   0.00029   0.00086  -0.00422
  26        2S          0.00011   0.00004   0.00002   0.00005  -0.01032
  27        3PX         0.00004   0.00011  -0.00002   0.00002  -0.00010
  28        3PY         0.00011   0.00002  -0.00005  -0.00002   0.00141
  29        3PZ        -0.00005  -0.00002   0.00001   0.00003   0.00000
                          16        17        18        19        20
  16        2S          0.06057
  17        3PX         0.00000   0.00098
  18        3PY         0.00000   0.00000   0.00220
  19        3PZ         0.00000   0.00000   0.00000   0.00133
  20 3   H  1S         -0.01032   0.00075   0.00056   0.00000   0.37316
  21        2S         -0.00895   0.00046  -0.00000   0.00000   0.09678
  22        3PX        -0.00023   0.00001   0.00007   0.00000   0.00000
  23        3PY         0.00069   0.00006   0.00013   0.00000   0.00000
  24        3PZ         0.00000   0.00000   0.00000   0.00002   0.00000
  25 4   H  1S         -0.01032   0.00075   0.00056   0.00000  -0.00422
  26        2S         -0.00895   0.00046  -0.00000   0.00000  -0.01032
  27        3PX        -0.00023   0.00001   0.00007   0.00000   0.00131
  28        3PY         0.00069   0.00006   0.00013   0.00000  -0.00000
  29        3PZ         0.00000   0.00000   0.00000   0.00002   0.00000
                          21        22        23        24        25
  21        2S          0.06057
  22        3PX         0.00000   0.00189
  23        3PY         0.00000   0.00000   0.00128
  24        3PZ         0.00000   0.00000   0.00000   0.00133
  25 4   H  1S         -0.01032   0.00131  -0.00000   0.00000   0.37316
  26        2S         -0.00895   0.00046  -0.00000   0.00000   0.09678
  27        3PX         0.00046   0.00026   0.00000   0.00000   0.00000
  28        3PY        -0.00000   0.00000   0.00000   0.00000   0.00000
  29        3PZ         0.00000   0.00000   0.00000   0.00002   0.00000
                          26        27        28        29
  26        2S          0.06057
  27        3PX         0.00000   0.00189
  28        3PY         0.00000   0.00000   0.00128
  29        3PZ         0.00000   0.00000   0.00000   0.00133
     Gross orbital populations:
                           1
   1 1   N  1S          1.98652
   2        2S          1.01271
   3        3S          0.46100
   4        4PX         0.72708
   5        4PY         0.72708
   6        4PZ         0.93386
   7        5PX         0.33015
   8        5PY         0.33015
   9        5PZ         0.71913
  10        6D 0        0.00095
  11        6D+1        0.00554
  12        6D-1        0.00554
  13        6D+2        0.00191
  14        6D-2        0.00191
  15 2   H  1S          0.71951
  16        2S          0.15259
  17        3PX         0.01005
  18        3PY         0.02151
  19        3PZ         0.01518
  20 3   H  1S          0.71951
  21        2S          0.15259
  22        3PX         0.01864
  23        3PY         0.01291
  24        3PZ         0.01518
  25 4   H  1S          0.71951
  26        2S          0.15259
  27        3PX         0.01864
  28        3PY         0.01291
  29        3PZ         0.01518
          Condensed to atoms (all electrons):
               1          2          3          4
     1  N    6.202449   0.347024   0.347024   0.347024
     2  H    0.347024   0.631802  -0.030000  -0.030000
     3  H    0.347024  -0.030000   0.631802  -0.030000
     4  H    0.347024  -0.030000  -0.030000   0.631802
 Mulliken charges:
               1
     1  N   -0.243520
     2  H    0.081173
     3  H    0.081173
     4  H    0.081173
 Sum of Mulliken charges =   0.00000
 Mulliken charges with hydrogens summed into heavy atoms:
               1
     1  N    0.000000
 Electronic spatial extent (au):  <R**2>=             26.5541
 Charge=              0.0000 electrons
 Dipole moment (field-independent basis, Debye):
    X=             -0.0000    Y=              0.0000    Z=             -1.7747  Tot=              1.7747
 Quadrupole moment (field-independent basis, Debye-Ang):
   XX=             -6.3070   YY=             -6.3070   ZZ=             -8.5753
   XY=             -0.0000   XZ=              0.0000   YZ=              0.0000
 Traceless Quadrupole moment (field-independent basis, Debye-Ang):
   XX=              0.7561   YY=              0.7561   ZZ=             -1.5122
   XY=             -0.0000   XZ=              0.0000   YZ=              0.0000
 Octapole moment (field-independent basis, Debye-Ang**2):
  XXX=             -0.0000  YYY=              0.6370  ZZZ=             -1.4135  XYY=              0.0000
  XXY=             -0.6370  XXZ=             -0.7118  XZZ=              0.0000  YZZ=             -0.0000
  YYZ=             -0.7118  XYZ=              0.0000
 Hexadecapole moment (field-independent basis, Debye-Ang**3):
 XXXX=            -10.2074 YYYY=            -10.2074 ZZZZ=             -9.5899 XXXY=              0.0000
 XXXZ=              0.0000 YYYX=              0.0000 YYYZ=             -0.2965 ZZZX=             -0.0000
 ZZZY=              0.0000 XXYY=             -3.4025 XXZZ=             -3.3075 YYZZ=             -3.3075
 XXYZ=              0.2965 YYXZ=             -0.0000 ZZXY=              0.0000
 N-N= 1.175589009440D+01 E-N=-1.551585397825D+02  KE= 5.587243098876D+01
 Symmetry A'   KE= 5.328643555212D+01
 Symmetry A"   KE= 2.585995436640D+00
 Orbital energies and kinetic energies (alpha):
                                 1                 2
   1         (A1)--O         -13.968832         21.747835
   2         (A1)--O          -0.754602          1.938217
   3         (E)--O           -0.394817          1.292998
   4         (E)--O           -0.394817          1.292998
   5         (A1)--O          -0.205525          1.664168
   6         (A1)--V           0.031076          0.858603
   7         (E)--V            0.113256          0.957491
   8         (E)--V            0.113256          0.957491
   9         (E)--V            0.471803          1.520386
  10         (E)--V            0.471803          1.520386
  11         (A1)--V           0.596366          2.559063
  12         (A1)--V           0.698385          2.949242
  13         (E)--V            0.790932          2.603517
  14         (E)--V            0.790932          2.603517
  15         (A1)--V           0.893479          2.304033
  16         (E)--V            1.134896          1.991140
  17         (E)--V            1.134896          1.991140
  18         (A2)--V           1.547074          2.294013
  19         (A1)--V           1.592713          2.618886
  20         (E)--V            1.737361          2.476903
  21         (E)--V            1.737361          2.476903
  22         (E)--V            1.991804          3.519007
  23         (E)--V            1.991804          3.519007
  24         (A1)--V           2.390100          4.289224
  25         (E)--V            2.699115          4.067739
  26         (E)--V            2.699115          4.067739
  27         (A1)--V           2.752434          4.579095
  28         (E)--V            3.237905          5.179760
  29         (E)--V            3.237905          5.179760
 Total kinetic energy from orbitals= 5.587243098876D+01
 No NMR shielding tensors so no spin-rotation constants.
 Leave Link  601 at Mon Jan 22 15:07:05 2018, MaxMem=   536870912 cpu:         0.2
 (Enter /home/chemsoft/gaussian/g09e01/g09/l9999.exe)

 This type of calculation cannot be archived.

 Writing a WFN file to "ammonia.pbesvp.wfn"


 ALMOST ALL THE CHEMICAL PROCESSES WHICH OCCUR IN NATURE,
 WHETHER IN ANIMAL OR VEGETABLE ORGANISMS,
 OR IN THE NON-LIVING SURFACE OF THE EARTH ... 
 TAKE PLACE BETWEEN SUBSTANCES IN SOLUTION

                                    -- W. OSTWALD, 1890
 Job cpu time:       0 days  0 hours  0 minutes  1.8 seconds.
 File lengths (MBytes):  RWF=      5 Int=      0 D2E=      0 Chk=      1 Scr=      1
 Normal termination of Gaussian 09 at Mon Jan 22 15:07:05 2018.
