Ammonia DF-PBE/def2-SVP                                                 
FOpt      RPBEPBE                                                     def2SVP/W06         
Number of atoms                            I                4
Info1-9                                    I   N=           9
          19          18           0           0           0         111
           2          18         902
Full Title                                 C   N=           2
Ammonia DF-PBE/def2-SVP 
Route                                      C   N=          13
#P PBEPBE/def2SVP/W06 DenFit opt(MaxCycle=100) scf(xqc,MaxCo
nventionalCycle=500) int(ultrafinegrid) gfinput gfoldprint i
op(6/7=3) symmetry(loose)           
Charge                                     I                0
Multiplicity                               I                1
Number of electrons                        I               10
Number of alpha electrons                  I                5
Number of beta electrons                   I                5
Number of basis functions                  I               29
Number of independent functions            I               29
Number of point charges in /Mol/           I                0
Number of translation vectors              I                0
Atomic numbers                             I   N=           4
           7           1           1           1
Nuclear charges                            R   N=           4
  7.00000000E+00  1.00000000E+00  1.00000000E+00  1.00000000E+00
Current cartesian coordinates              R   N=          12
  0.00000000E+00 -0.00000000E+00  2.42148646E-01  0.00000000E+00  1.77314758E+00
 -5.65013508E-01 -1.53559085E+00 -8.86573791E-01 -5.65013508E-01  1.53559085E+00
 -8.86573791E-01 -5.65013508E-01
Number of symbols in /Mol/                 I                0
Redundant internal dimensions              I   N=           4
           7           3           3           1
Redundant internal coordinate indices      I   N=          28
           1           2           0           0           1           3
           0           0           1           4           0           0
           2           1           3           0           2           1
           4           0           3           1           4           0
           2           1           4           3
Redundant internal coordinates             R   N=           7
  1.94822049E+00  1.94822049E+00  1.94822049E+00  1.81576308E+00  1.81576308E+00
  1.81576308E+00 -1.89670945E+00
ZRed-IntVec                                I   N=           7
           0           0           0           0           0           0
           0
ZRed-FPVec                                 R   N=           7
  0.00000000E+00  0.00000000E+00  0.00000000E+00  0.00000000E+00  0.00000000E+00
  0.00000000E+00  0.00000000E+00
ZRed-Constraint1                           R   N=           7
  1.92367312E+00  1.92367312E+00  1.92367312E+00  1.84561291E+00  1.84561291E+00
  1.84561291E+00 -1.95243253E+00
ZRed-Constraint2                           R   N=           7
  0.00000000E+00  0.00000000E+00  0.00000000E+00  0.00000000E+00  0.00000000E+00
  0.00000000E+00  0.00000000E+00
Force Field                                I                0
Atom Types                                 C   N=           4
                                                
Int Atom Types                             I   N=           4
           0           0           0           0
MM charges                                 R   N=           4
  0.00000000E+00  0.00000000E+00  0.00000000E+00  0.00000000E+00
Integer atomic weights                     I   N=           4
          14           1           1           1
Real atomic weights                        R   N=           4
  1.40030740E+01  1.00782504E+00  1.00782504E+00  1.00782504E+00
Atom fragment info                         I   N=           4
           0           0           0           0
Atom residue num                           I   N=           4
           0           0           0           0
Nuclear spins                              I   N=           4
           2           1           1           1
Nuclear ZEff                               R   N=           4
 -4.55000000E+00 -1.00000000E+00 -1.00000000E+00 -1.00000000E+00
Nuclear ZNuc                               R   N=           4
  7.00000000E+00  1.00000000E+00  1.00000000E+00  1.00000000E+00
Nuclear QMom                               R   N=           4
  2.04400000E+00  0.00000000E+00  0.00000000E+00  0.00000000E+00
Nuclear GFac                               R   N=           4
  4.03761000E-01  2.79284600E+00  2.79284600E+00  2.79284600E+00
MicOpt                                     I   N=           4
          -1          -1          -1          -1
Number of residues                         I                0
Number of secondary structures             I                0
SymInf integers                            I   N=          26
           2           2           1           1           1          -1
           1           1           0           0           0           0
           0           0           0           0           0           0
           0           0           0           0           0           0
           0           0
RotTr to input orientation                 R   N=          12
  3.34104244E-10 -1.00000000E+00  0.00000000E+00 -1.00000000E+00 -3.34104244E-10
  0.00000000E+00  0.00000000E+00  0.00000000E+00 -1.00000000E+00 -1.88972460E-10
  3.55271368E-16  6.66438192E-02
Number of contracted shells                I               15
Number of primitive shells                 I               27
Pure/Cartesian d shells                    I                0
Pure/Cartesian f shells                    I                0
Highest angular momentum                   I                2
Largest degree of contraction              I                5
Shell types                                I   N=          15
           0           0           0           1           1          -2
           0           0           1           0           0           1
           0           0           1
Number of primitives per shell             I   N=          15
           5           1           1           3           1           1
           3           1           1           3           1           1
           3           1           1
Shell to atom map                          I   N=          15
           1           1           1           1           1           1
           2           2           2           3           3           3
           4           4           4
Primitive exponents                        R   N=          27
  1.71284159E+03  2.57648127E+02  5.84582459E+01  1.61983679E+01  5.00526008E+00
  5.87318566E-01  1.87645923E-01  1.35714702E+01  2.92573729E+00  7.99277508E-01
  2.19543480E-01  1.00000000E+00  1.30107010E+01  1.96225720E+00  4.44537960E-01
  1.21949620E-01  8.00000000E-01  1.30107010E+01  1.96225720E+00  4.44537960E-01
  1.21949620E-01  8.00000000E-01  1.30107010E+01  1.96225720E+00  4.44537960E-01
  1.21949620E-01  8.00000000E-01
Contraction coefficients                   R   N=          27
 -5.44779958E-03 -4.06271746E-02 -1.81119623E-01 -4.68439756E-01 -4.46168463E-01
  1.00000000E+00  1.00000000E+00 -5.88481170E-02 -3.20246248E-01 -7.53282265E-01
  1.00000000E+00  1.00000000E+00  3.34854848E-02  2.34721871E-01  8.13770285E-01
  1.00000000E+00  1.00000000E+00  3.34854848E-02  2.34721871E-01  8.13770285E-01
  1.00000000E+00  1.00000000E+00  3.34854848E-02  2.34721871E-01  8.13770285E-01
  1.00000000E+00  1.00000000E+00
Coordinates of each shell                  R   N=          45
  0.00000000E+00  0.00000000E+00  2.42148646E-01  0.00000000E+00  0.00000000E+00
  2.42148646E-01  0.00000000E+00  0.00000000E+00  2.42148646E-01  0.00000000E+00
  0.00000000E+00  2.42148646E-01  0.00000000E+00  0.00000000E+00  2.42148646E-01
  0.00000000E+00  0.00000000E+00  2.42148646E-01  0.00000000E+00  1.77314758E+00
 -5.65013508E-01  0.00000000E+00  1.77314758E+00 -5.65013508E-01  0.00000000E+00
  1.77314758E+00 -5.65013508E-01 -1.53559085E+00 -8.86573791E-01 -5.65013508E-01
 -1.53559085E+00 -8.86573791E-01 -5.65013508E-01 -1.53559085E+00 -8.86573791E-01
 -5.65013508E-01  1.53559085E+00 -8.86573791E-01 -5.65013508E-01  1.53559085E+00
 -8.86573791E-01 -5.65013508E-01  1.53559085E+00 -8.86573791E-01 -5.65013508E-01
Density Number of contracted shells        I               30
Density Number of primitive shells         I               48
Density Pure/Cartesian d shells            I                0
Density Pure/Cartesian f shells            I                0
Density Highest angular momentum           I                4
Density Largest degree of contraction      I                7
Density Shell types                        I   N=          30
           0           0           0           0           0           0
           1           1           1           1          -2          -2
          -2          -3          -4           0           0           0
           1          -2           0           0           0           1
          -2           0           0           0           1          -2
Density Number of primitives per shell     I   N=          30
           7           1           1           1           1           1
           2           1           1           1           2           1
           1           2           1           3           1           1
           2           1           3           1           1           2
           1           3           1           1           2           1
Density Shell to atom map                  I   N=          30
           1           1           1           1           1           1
           1           1           1           1           1           1
           1           1           1           2           2           2
           2           2           3           3           3           3
           3           4           4           4           4           4
Density Primitive exponents                R   N=          48
  2.54294018E+03  1.02954730E+03  4.24905355E+02  1.78457371E+02  7.61362742E+01
  3.29338653E+01  1.44155436E+01  6.37188910E+00  2.83817420E+00  1.27117930E+00
  5.71240700E-01  2.56988700E-01  1.78975990E+01  6.53463190E+00  2.35236450E+00
  8.39737700E-01  2.98933500E-01  7.69098700E+00  2.30449720E+00  8.40398700E-01
  3.30379700E-01  2.33310760E+00  8.44613700E-01  1.40377000E+00  1.56752927E+01
  3.60635780E+00  1.20800160E+00  4.72679400E-01  2.01810000E-01  2.02813650E+00
  5.35873000E-01  2.21651240E+00  1.56752927E+01  3.60635780E+00  1.20800160E+00
  4.72679400E-01  2.01810000E-01  2.02813650E+00  5.35873000E-01  2.21651240E+00
  1.56752927E+01  3.60635780E+00  1.20800160E+00  4.72679400E-01  2.01810000E-01
  2.02813650E+00  5.35873000E-01  2.21651240E+00
Density Contraction coefficients           R   N=          48
  1.57267989E-03  3.97704448E-03  1.95376611E-02  7.47626441E-02  2.18976743E-01
  4.21671880E-01  2.96402909E-01 -1.00000000E+00  1.00000000E+00  1.00000000E+00
  1.00000000E+00  1.00000000E+00 -1.19813247E+00  2.49356462E-01  1.00000000E+00
  1.00000000E+00  1.00000000E+00  9.91894048E-02  9.12612482E-01  1.00000000E+00
  1.00000000E+00  4.52107608E-01  6.08156234E-01 -1.00000000E+00  3.26115897E-02
  2.29804684E-01  7.57208324E-01  1.00000000E+00  1.00000000E+00  3.61836199E-01
  7.03930309E-01  1.00000000E+00  3.26115897E-02  2.29804684E-01  7.57208324E-01
  1.00000000E+00  1.00000000E+00  3.61836199E-01  7.03930309E-01  1.00000000E+00
  3.26115897E-02  2.29804684E-01  7.57208324E-01  1.00000000E+00  1.00000000E+00
  3.61836199E-01  7.03930309E-01  1.00000000E+00
Density Coordinates of each shell          R   N=          90
  0.00000000E+00  0.00000000E+00  2.42148646E-01  0.00000000E+00  0.00000000E+00
  2.42148646E-01  0.00000000E+00  0.00000000E+00  2.42148646E-01  0.00000000E+00
  0.00000000E+00  2.42148646E-01  0.00000000E+00  0.00000000E+00  2.42148646E-01
  0.00000000E+00  0.00000000E+00  2.42148646E-01  0.00000000E+00  0.00000000E+00
  2.42148646E-01  0.00000000E+00  0.00000000E+00  2.42148646E-01  0.00000000E+00
  0.00000000E+00  2.42148646E-01  0.00000000E+00  0.00000000E+00  2.42148646E-01
  0.00000000E+00  0.00000000E+00  2.42148646E-01  0.00000000E+00  0.00000000E+00
  2.42148646E-01  0.00000000E+00  0.00000000E+00  2.42148646E-01  0.00000000E+00
  0.00000000E+00  2.42148646E-01  0.00000000E+00  0.00000000E+00  2.42148646E-01
  0.00000000E+00  1.77314758E+00 -5.65013508E-01  0.00000000E+00  1.77314758E+00
 -5.65013508E-01  0.00000000E+00  1.77314758E+00 -5.65013508E-01  0.00000000E+00
  1.77314758E+00 -5.65013508E-01  0.00000000E+00  1.77314758E+00 -5.65013508E-01
 -1.53559085E+00 -8.86573791E-01 -5.65013508E-01 -1.53559085E+00 -8.86573791E-01
 -5.65013508E-01 -1.53559085E+00 -8.86573791E-01 -5.65013508E-01 -1.53559085E+00
 -8.86573791E-01 -5.65013508E-01 -1.53559085E+00 -8.86573791E-01 -5.65013508E-01
  1.53559085E+00 -8.86573791E-01 -5.65013508E-01  1.53559085E+00 -8.86573791E-01
 -5.65013508E-01  1.53559085E+00 -8.86573791E-01 -5.65013508E-01  1.53559085E+00
 -8.86573791E-01 -5.65013508E-01  1.53559085E+00 -8.86573791E-01 -5.65013508E-01
Constraint Structure                       R   N=          12
  0.00000000E+00 -0.00000000E+00  2.25306189E-01  0.00000000E+00  1.77101279E+00
 -5.25714440E-01 -1.53374206E+00 -8.85506393E-01 -5.25714440E-01  1.53374206E+00
 -8.85506393E-01 -5.25714440E-01
Num ILSW                                   I              100
ILSW                                       I   N=         100
           0           0           0           0           2           0
           0           0           0           0        1009          -1
           5           0           0           0           2           0
           0           0           0           0           1           0
           1           0           0           0           0           0
           0           0      100000           0          -1           0
           0           0           0           0           0           0
           0           0           0           1           0           0
           0           0           1           0           0           0
           0           0           4          41           0           0
           0           0           0           0           0           0
           0           0           0           4           0           0
           0           0           0           0           0           0
           0           0           0           0           0           0
           0           0           0           0           0           0
           0           0           0           0           0           0
           0           0           0           0
Num RLSW                                   I               41
RLSW                                       R   N=          41
  1.00000000E+00  1.00000000E+00  1.00000000E+00  1.00000000E+00  0.00000000E+00
  0.00000000E+00  0.00000000E+00  1.00000000E+00  0.00000000E+00  0.00000000E+00
  0.00000000E+00  0.00000000E+00  1.00000000E+00  0.00000000E+00  0.00000000E+00
  0.00000000E+00  0.00000000E+00  1.00000000E+00  0.00000000E+00  0.00000000E+00
  0.00000000E+00  0.00000000E+00  1.00000000E+00  0.00000000E+00  0.00000000E+00
  0.00000000E+00  0.00000000E+00  1.00000000E+00  0.00000000E+00  0.00000000E+00
  0.00000000E+00  0.00000000E+00  1.00000000E+00  0.00000000E+00  0.00000000E+00
  0.00000000E+00  0.00000000E+00  0.00000000E+00  1.00000000E+00  1.00000000E+00
  0.00000000E+00
ECP-MxAtEC                                 I           250000
ECP-MaxLECP                                I               10
ECP-MaxAtL                                 I          2250000
ECP-MxTECP                                 I         11250000
ECP-LenNCZ                                 I                0
ECP-KFirst                                 I   N=          40
           0           0           0           0           0           0
           0           0           0           0           0           0
           0           0           0           0           0           0
           0           0           0           0           0           0
           0           0           0           0           0           0
           0           0           0           0           0           0
           0           0           0           0
ECP-KLast                                  I   N=          40
           0           0           0           0           0           0
           0           0           0           0           0           0
           0           0           0           0           0           0
           0           0           0           0           0           0
           0           0           0           0           0           0
           0           0           0           0           0           0
           0           0           0           0
ECP-LMax                                   I   N=           4
           0           0           0           0
ECP-LPSkip                                 I   N=           4
           1           1           1           1
ECP-RNFroz                                 R   N=           4
  0.00000000E+00  0.00000000E+00  0.00000000E+00  0.00000000E+00
ECP-NLP                                    I                0
ECP-CLP1                                   R      0.000000000000000E+00
ECP-CLP2                                   R      0.000000000000000E+00
ECP-ZLP                                    R      0.000000000000000E+00
MxBond                                     I                3
NBond                                      I   N=           4
           3           1           1           1
IBond                                      I   N=          12
           2           3           4           1           0           0
           1           0           0           1           0           0
RBond                                      R   N=          12
  1.00000000E+00  1.00000000E+00  1.00000000E+00  1.00000000E+00  0.00000000E+00
  0.00000000E+00  1.00000000E+00  0.00000000E+00  0.00000000E+00  1.00000000E+00
  0.00000000E+00  0.00000000E+00
Virial Ratio                               R      2.010037908366869E+00
SCF Energy                                 R     -5.643327333126018E+01
Total Energy                               R     -5.643327333126018E+01
RMS Force                                  R      6.409270238290453E-05
RMS Density                                R      8.011964028176777E-09
Job Status                                 I                1
Nuclear derivative order                   I                1
External E-field                           R   N=          35
  0.00000000E+00  0.00000000E+00  0.00000000E+00  0.00000000E+00  0.00000000E+00
  0.00000000E+00  0.00000000E+00  0.00000000E+00  0.00000000E+00  0.00000000E+00
  0.00000000E+00  0.00000000E+00  0.00000000E+00  0.00000000E+00  0.00000000E+00
  0.00000000E+00  0.00000000E+00  0.00000000E+00  0.00000000E+00  0.00000000E+00
  0.00000000E+00  0.00000000E+00  0.00000000E+00  0.00000000E+00  0.00000000E+00
  0.00000000E+00  0.00000000E+00  0.00000000E+00  0.00000000E+00  0.00000000E+00
  0.00000000E+00  0.00000000E+00  0.00000000E+00  0.00000000E+00  0.00000000E+00
IOpCl                                      I                0
IROHF                                      I                0
Alpha Orbital Energies                     R   N=          29
 -1.39688317E+01 -7.54602168E-01 -3.94816977E-01 -3.94816977E-01 -2.05524742E-01
  3.10757284E-02  1.13255920E-01  1.13255920E-01  4.71802996E-01  4.71802996E-01
  5.96365914E-01  6.98385414E-01  7.90932051E-01  7.90932051E-01  8.93478893E-01
  1.13489553E+00  1.13489553E+00  1.54707431E+00  1.59271347E+00  1.73736096E+00
  1.73736096E+00  1.99180441E+00  1.99180441E+00  2.39010027E+00  2.69911507E+00
  2.69911507E+00  2.75243350E+00  3.23790540E+00  3.23790540E+00
Alpha MO coefficients                      R   N=         841
  9.88069578E-01 -4.54128107E-02  1.85976051E-02  0.00000000E+00  5.05116659E-16
 -4.03593385E-03  0.00000000E+00 -6.28437830E-17 -4.88975248E-04  1.29942463E-03
  0.00000000E+00 -4.68053142E-18  8.95074322E-17  0.00000000E+00  3.40736513E-03
 -2.97475263E-03  0.00000000E+00 -3.41424735E-03  1.54808267E-03  3.40736513E-03
 -2.97475263E-03  2.95682494E-03  1.70712367E-03  1.54808267E-03  3.40736513E-03
 -2.97475263E-03 -2.95682494E-03  1.70712367E-03  1.54808267E-03  2.58811798E-01
  5.18124131E-01  1.70260410E-01  0.00000000E+00 -1.07007798E-15  1.18394290E-01
  0.00000000E+00 -1.15950750E-15 -7.68947471E-03 -1.35353987E-03  0.00000000E+00
  1.85453709E-16  1.30008200E-17  0.00000000E+00  1.94414180E-01  2.51898669E-02
  0.00000000E+00 -2.67662696E-02  4.28169346E-03  1.94414180E-01  2.51898669E-02
  2.31802695E-02  1.33831348E-02  4.28169346E-03  1.94414180E-01  2.51898669E-02
 -2.31802695E-02  1.33831348E-02  4.28169346E-03  2.61789372E-16  1.66711739E-15
 -4.17993064E-15  0.00000000E+00  4.66502979E-01  6.86393130E-16  0.00000000E+00
 -1.92026156E-01  1.21883036E-15 -5.78526936E-17  0.00000000E+00  2.15239111E-02
  8.38288804E-03  0.00000000E+00 -3.74162932E-01 -1.59671517E-01  0.00000000E+00
  1.64170099E-02 -1.16878964E-02  1.87081466E-01  7.98357583E-02  1.66955809E-02
 -1.25005845E-02  5.84394818E-03  1.87081466E-01  7.98357583E-02 -1.66955809E-02
 -1.25005845E-02  5.84394818E-03  0.00000000E+00  0.00000000E+00  0.00000000E+00
  4.66502979E-01  0.00000000E+00  0.00000000E+00 -1.92026156E-01  0.00000000E+00
  0.00000000E+00  0.00000000E+00  2.15239111E-02  0.00000000E+00  0.00000000E+00
  8.38288804E-03  0.00000000E+00  0.00000000E+00 -2.21397826E-02  0.00000000E+00
  0.00000000E+00  3.24034604E-01  1.38279590E-01  6.77781174E-03  1.66955809E-02
  1.01220152E-02 -3.24034604E-01 -1.38279590E-01  6.77781174E-03 -1.66955809E-02
 -1.01220152E-02 -1.06225612E-01 -2.16261108E-01 -3.51346430E-01  0.00000000E+00
 -1.64227521E-18  5.36651316E-01  0.00000000E+00 -2.12731772E-15 -4.27489647E-01
  2.24963766E-02  0.00000000E+00  9.14356523E-17 -2.60779215E-17  0.00000000E+00
  9.36715364E-02  6.44121720E-02  0.00000000E+00 -1.00209112E-02 -2.25032075E-02
  9.36715364E-02  6.44121720E-02  8.67836371E-03  5.01045562E-03 -2.25032075E-02
  9.36715364E-02  6.44121720E-02 -8.67836371E-03  5.01045562E-03 -2.25032075E-02
  1.27804941E-01  2.20572892E-01  1.42543324E+00  0.00000000E+00 -3.10695223E-15
  2.06162653E-01  0.00000000E+00  1.31520222E-14 -3.60746721E-01  5.20815537E-03
  0.00000000E+00 -3.89906130E-16  3.02896552E-16  0.00000000E+00 -8.68820792E-02
 -7.58150904E-01  0.00000000E+00 -6.20907251E-03  1.42534255E-03 -8.68820792E-02
 -7.58150904E-01  5.37721453E-03  3.10453626E-03  1.42534255E-03 -8.68820792E-02
 -7.58150904E-01 -5.37721453E-03  3.10453626E-03  1.42534255E-03  1.94919285E-15
  3.62361049E-15  1.59161373E-14  0.00000000E+00  4.03307377E-01  2.38300133E-15
  0.00000000E+00 -7.69284760E-01 -2.29449026E-15 -4.18396837E-16  0.00000000E+00
  8.59671630E-03 -7.46570885E-03  0.00000000E+00  1.38794028E-01  1.53925170E+00
  0.00000000E+00  6.36324993E-03 -7.08045989E-03 -6.93970140E-02 -7.69625849E-01
  5.90883925E-03 -3.87115986E-03  3.54022994E-03 -6.93970140E-02 -7.69625849E-01
 -5.90883925E-03 -3.87115986E-03  3.54022994E-03  0.00000000E+00  0.00000000E+00
  0.00000000E+00 -4.03307377E-01  0.00000000E+00  0.00000000E+00  7.69284760E-01
  0.00000000E+00  0.00000000E+00  0.00000000E+00 -8.59671630E-03  0.00000000E+00
  0.00000000E+00  7.46570885E-03  0.00000000E+00  0.00000000E+00  7.28262980E-03
  0.00000000E+00  0.00000000E+00  1.20199154E-01  1.33303107E+00 -2.95178000E-03
 -5.90883925E-03 -6.13185813E-03 -1.20199154E-01 -1.33303107E+00 -2.95178000E-03
  5.90883925E-03  6.13185813E-03  0.00000000E+00  0.00000000E+00  0.00000000E+00
 -1.51875532E-01  0.00000000E+00  0.00000000E+00  5.12668531E-01  0.00000000E+00
  0.00000000E+00  0.00000000E+00  6.72619225E-02  0.00000000E+00  0.00000000E+00
  9.24460859E-02  0.00000000E+00  0.00000000E+00  8.98310497E-02  0.00000000E+00
  0.00000000E+00  9.23952106E-01 -7.20222948E-01 -1.58887965E-02 -6.10373817E-02
 -4.43591128E-02 -9.23952106E-01  7.20222948E-01 -1.58887965E-02  6.10373817E-02
  4.43591128E-02 -3.30102994E-15 -1.30062894E-14  1.03885133E-14  0.00000000E+00
  1.51875532E-01 -4.48608773E-15  0.00000000E+00 -5.12668531E-01  4.35073535E-16
 -5.25965527E-16  0.00000000E+00 -6.72619225E-02 -9.24460859E-02  0.00000000E+00
  1.06688799E+00 -8.31641826E-01  0.00000000E+00  5.11287452E-02 -5.12214915E-02
 -5.33443997E-01  4.15820913E-01  6.10373817E-02 -5.45911010E-02  2.56107457E-02
 -5.33443997E-01  4.15820913E-01 -6.10373817E-02 -5.45911010E-02  2.56107457E-02
 -1.79786210E-01 -8.31788363E-01  1.31908990E+00  0.00000000E+00 -8.12968368E-15
 -3.99316487E-01  0.00000000E+00 -1.85845774E-15 -3.09711794E-01 -7.46939927E-02
  0.00000000E+00  1.81917958E-15  2.26123071E-15  0.00000000E+00  5.75663849E-01
 -6.37751797E-01  0.00000000E+00  1.73434127E-01  1.62982714E-03  5.75663849E-01
 -6.37751797E-01 -1.50198360E-01 -8.67170637E-02  1.62982714E-03  5.75663849E-01
 -6.37751797E-01  1.50198360E-01 -8.67170637E-02  1.62982714E-03 -1.67074971E-01
 -8.40073737E-01  7.72453579E-01  0.00000000E+00 -9.21377772E-15  8.48402032E-01
  0.00000000E+00 -1.20272488E-14  9.62664022E-01  4.47130615E-04  0.00000000E+00
  5.13264053E-16  5.06023180E-16  0.00000000E+00  1.64212610E-01 -1.17270541E-01
  0.00000000E+00 -1.36811152E-02  1.07662382E-02  1.64212610E-01 -1.17270541E-01
  1.18481933E-02  6.84055758E-03  1.07662382E-02  1.64212610E-01 -1.17270541E-01
 -1.18481933E-02  6.84055758E-03  1.07662382E-02  0.00000000E+00  0.00000000E+00
  0.00000000E+00  8.93077032E-01  0.00000000E+00  0.00000000E+00  1.73814236E+00
  0.00000000E+00  0.00000000E+00  0.00000000E+00 -3.45257920E-02  0.00000000E+00
  0.00000000E+00 -3.72511850E-02  0.00000000E+00  0.00000000E+00  6.82370063E-03
  0.00000000E+00  0.00000000E+00  6.32006637E-02  1.07590209E+00  1.51728475E-01
  8.36608106E-02  8.47375714E-02 -6.32006637E-02 -1.07590209E+00  1.51728475E-01
 -8.36608106E-02 -8.47375714E-02 -4.65474372E-15 -2.95774585E-14  5.45838454E-14
  0.00000000E+00  8.93077032E-01  3.36195653E-15  0.00000000E+00  1.73814236E+00
 -3.96115503E-15  9.94215417E-16  0.00000000E+00 -3.45257920E-02 -3.72511850E-02
  0.00000000E+00 -7.29778404E-02 -1.24234472E+00  0.00000000E+00  2.00030067E-01
 -9.78465194E-02  3.64889202E-02  6.21172358E-01  8.36608106E-02  5.51252921E-02
  4.89232597E-02  3.64889202E-02  6.21172358E-01 -8.36608106E-02  5.51252921E-02
  4.89232597E-02 -1.81720885E-01 -1.49884374E+00  3.58296648E+00  0.00000000E+00
 -8.22519698E-15 -2.43283529E-01  0.00000000E+00 -1.50681607E-14 -9.16583182E-01
  1.01240345E-01  0.00000000E+00 -5.93724730E-17  8.90172328E-17  0.00000000E+00
 -6.55472126E-01 -5.47497085E-01  0.00000000E+00 -1.01262501E-02 -1.67319546E-01
 -6.55472126E-01 -5.47497085E-01  8.76958979E-03  5.06312503E-03 -1.67319546E-01
 -6.55472126E-01 -5.47497085E-01 -8.76958979E-03  5.06312503E-03 -1.67319546E-01
  0.00000000E+00  0.00000000E+00  0.00000000E+00  1.80608515E-02  0.00000000E+00
  0.00000000E+00 -3.38980483E-01  0.00000000E+00  0.00000000E+00  0.00000000E+00
 -1.97299430E-01  0.00000000E+00  0.00000000E+00  1.62943706E-01  0.00000000E+00
  0.00000000E+00  4.91313867E-01  0.00000000E+00  0.00000000E+00 -1.38691933E-01
 -5.18237907E-02 -3.96456924E-02 -3.06549645E-01  3.84175219E-01  1.38691933E-01
  5.18237907E-02 -3.96456924E-02  3.06549645E-01 -3.84175219E-01  1.28160386E-15
  7.37685236E-15 -1.67889545E-14  0.00000000E+00 -1.80608515E-02 -1.26947528E-15
  0.00000000E+00  3.38980483E-01  2.78138320E-15 -2.98132075E-16  0.00000000E+00
  1.97299430E-01 -1.62943706E-01  0.00000000E+00 -1.60147650E-01 -5.98409590E-02
  0.00000000E+00  2.16632212E-01  4.43607332E-01  8.00738249E-02  2.99204795E-02
  3.06549645E-01 -3.14327347E-01 -2.21803666E-01  8.00738249E-02  2.99204795E-02
 -3.06549645E-01 -3.14327347E-01 -2.21803666E-01  0.00000000E+00  0.00000000E+00
  0.00000000E+00  2.95648437E-15  0.00000000E+00  0.00000000E+00  4.09481735E-15
  0.00000000E+00  0.00000000E+00  0.00000000E+00  9.79589039E-16  0.00000000E+00
  0.00000000E+00  3.58273899E-15  0.00000000E+00  0.00000000E+00  6.11890313E-01
  0.00000000E+00  0.00000000E+00 -1.45129235E-15  4.37143200E-15 -3.05945157E-01
  5.29912555E-01  6.11798513E-16  1.45129235E-15 -4.37143200E-15 -3.05945157E-01
 -5.29912555E-01 -6.11798513E-16 -9.23619784E-02 -8.69046839E-01  1.83548803E+00
  0.00000000E+00 -1.25672143E-16 -9.96434956E-02  0.00000000E+00  2.23868515E-16
 -1.06742699E+00 -3.07393311E-01  0.00000000E+00  7.14134224E-16 -1.02831610E-15
  0.00000000E+00 -5.41034440E-01 -1.98205767E-01  0.00000000E+00  7.17693550E-02
  5.17517370E-01 -5.41034440E-01 -1.98205767E-01 -6.21540847E-02 -3.58846775E-02
  5.17517370E-01 -5.41034440E-01 -1.98205767E-01  6.21540847E-02 -3.58846775E-02
  5.17517370E-01  0.00000000E+00  0.00000000E+00  0.00000000E+00  3.37091415E-03
  0.00000000E+00  0.00000000E+00  9.22333297E-01  0.00000000E+00  0.00000000E+00
  0.00000000E+00  9.96490605E-02  0.00000000E+00  0.00000000E+00 -5.41151819E-02
  0.00000000E+00  0.00000000E+00 -6.35655383E-01  0.00000000E+00  0.00000000E+00
  3.40902410E-01  1.57081612E-01 -3.83349314E-01  1.45668977E-01  5.33141059E-01
 -3.40902410E-01 -1.57081612E-01 -3.83349314E-01 -1.45668977E-01 -5.33141059E-01
  1.40609203E-16 -9.26929876E-16  1.19524901E-14  0.00000000E+00  3.37091415E-03
  4.68582568E-16  0.00000000E+00  9.22333297E-01 -3.47816762E-15 -1.50316136E-15
  0.00000000E+00  9.96490605E-02 -5.41151819E-02  0.00000000E+00 -3.93640196E-01
 -1.81382222E-01  0.00000000E+00 -2.99247291E-01 -6.15618268E-01  1.96820098E-01
  9.06911111E-02  1.45668977E-01 -5.51553360E-01  3.07809134E-01  1.96820098E-01