Ammonia DF-PBE/def2-SVP                                                 
Freq      RPBEPBE                                                     def2SVP/W06         
Number of atoms                            I                4
Info1-9                                    I   N=           9
          10          10           0           0           0         101
           6          18         902
Full Title                                 C   N=           2
Ammonia DF-PBE/def2-SVP 
Route                                      C   N=          15
#P PBEPBE/def2SVP/W06 DenFit scf(xqc,MaxConventionalCycle=50
0) int(ultrafinegrid) gfinput gfoldprint iop(6/7=3) symmetry
(loose) geom(check) guess(read) freq(noraman temp=100 pre=5)
Charge                                     I                0
Multiplicity                               I                1
Number of electrons                        I               10
Number of alpha electrons                  I                5
Number of beta electrons                   I                5
Number of basis functions                  I               29
Number of independent functions            I               29
Number of point charges in /Mol/           I                0
Number of translation vectors              I                0
Atomic numbers                             I   N=           4
           7           1           1           1
Nuclear charges                            R   N=           4
  7.00000000E+00  1.00000000E+00  1.00000000E+00  1.00000000E+00
Current cartesian coordinates              R   N=          12
  0.00000000E+00 -1.99999994E-10  2.42148646E-01 -1.05016521E-09  1.77314758E+00
 -5.65013508E-01 -1.53559085E+00 -8.86573791E-01 -5.65013508E-01  1.53559085E+00
 -8.86573789E-01 -5.65013508E-01
Number of symbols in /Mol/                 I                0
Redundant internal dimensions              I   N=           4
           7           3           3           1
Redundant internal coordinate indices      I   N=          28
           1           2           0           0           1           3
           0           0           1           4           0           0
           2           1           3           0           2           1
           4           0           3           1           4           0
           2           1           4           3
Redundant internal coordinates             R   N=           7
  1.94822049E+00  1.94822049E+00  1.94822049E+00  1.81576308E+00  1.81576308E+00
  1.81576308E+00 -1.89670945E+00
ZRed-IntVec                                I   N=           7
           0           0           0           0           0           0
           0
ZRed-FPVec                                 R   N=           7
  0.00000000E+00  0.00000000E+00  0.00000000E+00  0.00000000E+00  0.00000000E+00
  0.00000000E+00  0.00000000E+00
ZRed-Constraint1                           R   N=           7
  1.94822049E+00  1.94822049E+00  1.94822049E+00  1.81576309E+00  1.81576309E+00
  1.81576308E+00 -1.89670945E+00
ZRed-Constraint2                           R   N=           7
  1.92367312E+00  1.92367312E+00  1.92367312E+00  1.84561291E+00  1.84561291E+00
  1.84561291E+00 -1.95243253E+00
Force Field                                I                0
Atom Types                                 C   N=           4
                                                
Int Atom Types                             I   N=           4
           0           0           0           0
MM charges                                 R   N=           4
  0.00000000E+00  0.00000000E+00  0.00000000E+00  0.00000000E+00
Integer atomic weights                     I   N=           4
          14           1           1           1
Real atomic weights                        R   N=           4
  1.40030740E+01  1.00782504E+00  1.00782504E+00  1.00782504E+00
Atom fragment info                         I   N=           4
           0           0           0           0
Atom residue num                           I   N=           4
           0           0           0           0
Nuclear spins                              I   N=           4
           2           1           1           1
Nuclear ZEff                               R   N=           4
 -4.55000000E+00 -1.00000000E+00 -1.00000000E+00 -1.00000000E+00
Nuclear ZNuc                               R   N=           4
  7.00000000E+00  1.00000000E+00  1.00000000E+00  1.00000000E+00
Nuclear QMom                               R   N=           4
  2.04400000E+00  0.00000000E+00  0.00000000E+00  0.00000000E+00
Nuclear GFac                               R   N=           4
  4.03761000E-01  2.79284600E+00  2.79284600E+00  2.79284600E+00
MicOpt                                     I   N=           4
          -1          -1          -1          -1
Number of residues                         I                0
Number of secondary structures             I                0
SymInf integers                            I   N=          26
           2           2           1           1           1          -1
           1           1           0           0           0           0
           0           0           0           0           0           0
           0           0           0           0           0           0
           0           0
RotTr to input orientation                 R   N=          12
  1.00000000E+00  5.92260463E-10  0.00000000E+00 -5.92260463E-10  1.00000000E+00
  0.00000000E+00  0.00000000E+00  0.00000000E+00  1.00000000E+00  0.00000000E+00
 -1.99999994E-10 -1.99999994E-10
Number of contracted shells                I               15
Number of primitive shells                 I               27
Pure/Cartesian d shells                    I                0
Pure/Cartesian f shells                    I                0
Highest angular momentum                   I                2
Largest degree of contraction              I                5
Shell types                                I   N=          15
           0           0           0           1           1          -2
           0           0           1           0           0           1
           0           0           1
Number of primitives per shell             I   N=          15
           5           1           1           3           1           1
           3           1           1           3           1           1
           3           1           1
Shell to atom map                          I   N=          15
           1           1           1           1           1           1
           2           2           2           3           3           3
           4           4           4
Primitive exponents                        R   N=          27
  1.71284159E+03  2.57648127E+02  5.84582459E+01  1.61983679E+01  5.00526008E+00
  5.87318566E-01  1.87645923E-01  1.35714702E+01  2.92573729E+00  7.99277508E-01
  2.19543480E-01  1.00000000E+00  1.30107010E+01  1.96225720E+00  4.44537960E-01
  1.21949620E-01  8.00000000E-01  1.30107010E+01  1.96225720E+00  4.44537960E-01
  1.21949620E-01  8.00000000E-01  1.30107010E+01  1.96225720E+00  4.44537960E-01
  1.21949620E-01  8.00000000E-01
Contraction coefficients                   R   N=          27
 -5.44779958E-03 -4.06271746E-02 -1.81119623E-01 -4.68439756E-01 -4.46168463E-01
  1.00000000E+00  1.00000000E+00 -5.88481170E-02 -3.20246248E-01 -7.53282265E-01
  1.00000000E+00  1.00000000E+00  3.34854848E-02  2.34721871E-01  8.13770285E-01
  1.00000000E+00  1.00000000E+00  3.34854848E-02  2.34721871E-01  8.13770285E-01
  1.00000000E+00  1.00000000E+00  3.34854848E-02  2.34721871E-01  8.13770285E-01
  1.00000000E+00  1.00000000E+00
Coordinates of each shell                  R   N=          45
  0.00000000E+00  0.00000000E+00  2.42148646E-01  0.00000000E+00  0.00000000E+00
  2.42148646E-01  0.00000000E+00  0.00000000E+00  2.42148646E-01  0.00000000E+00
  0.00000000E+00  2.42148646E-01  0.00000000E+00  0.00000000E+00  2.42148646E-01
  0.00000000E+00  0.00000000E+00  2.42148646E-01  0.00000000E+00  1.77314758E+00
 -5.65013508E-01  0.00000000E+00  1.77314758E+00 -5.65013508E-01  0.00000000E+00
  1.77314758E+00 -5.65013508E-01 -1.53559085E+00 -8.86573790E-01 -5.65013508E-01
 -1.53559085E+00 -8.86573790E-01 -5.65013508E-01 -1.53559085E+00 -8.86573790E-01
 -5.65013508E-01  1.53559085E+00 -8.86573790E-01 -5.65013508E-01  1.53559085E+00
 -8.86573790E-01 -5.65013508E-01  1.53559085E+00 -8.86573790E-01 -5.65013508E-01
Density Number of contracted shells        I               30
Density Number of primitive shells         I               48
Density Pure/Cartesian d shells            I                0
Density Pure/Cartesian f shells            I                0
Density Highest angular momentum           I                4
Density Largest degree of contraction      I                7
Density Shell types                        I   N=          30
           0           0           0           0           0           0
           1           1           1           1          -2          -2
          -2          -3          -4           0           0           0
           1          -2           0           0           0           1
          -2           0           0           0           1          -2
Density Number of primitives per shell     I   N=          30
           7           1           1           1           1           1
           2           1           1           1           2           1
           1           2           1           3           1           1
           2           1           3           1           1           2
           1           3           1           1           2           1
Density Shell to atom map                  I   N=          30
           1           1           1           1           1           1
           1           1           1           1           1           1
           1           1           1           2           2           2
           2           2           3           3           3           3
           3           4           4           4           4           4
Density Primitive exponents                R   N=          48
  2.54294018E+03  1.02954730E+03  4.24905355E+02  1.78457371E+02  7.61362742E+01
  3.29338653E+01  1.44155436E+01  6.37188910E+00  2.83817420E+00  1.27117930E+00
  5.71240700E-01  2.56988700E-01  1.78975990E+01  6.53463190E+00  2.35236450E+00
  8.39737700E-01  2.98933500E-01  7.69098700E+00  2.30449720E+00  8.40398700E-01
  3.30379700E-01  2.33310760E+00  8.44613700E-01  1.40377000E+00  1.56752927E+01
  3.60635780E+00  1.20800160E+00  4.72679400E-01  2.01810000E-01  2.02813650E+00
  5.35873000E-01  2.21651240E+00  1.56752927E+01  3.60635780E+00  1.20800160E+00
  4.72679400E-01  2.01810000E-01  2.02813650E+00  5.35873000E-01  2.21651240E+00
  1.56752927E+01  3.60635780E+00  1.20800160E+00  4.72679400E-01  2.01810000E-01
  2.02813650E+00  5.35873000E-01  2.21651240E+00
Density Contraction coefficients           R   N=          48
  1.57267989E-03  3.97704448E-03  1.95376611E-02  7.47626441E-02  2.18976743E-01
  4.21671880E-01  2.96402909E-01 -1.00000000E+00  1.00000000E+00  1.00000000E+00
  1.00000000E+00  1.00000000E+00 -1.19813247E+00  2.49356462E-01  1.00000000E+00
  1.00000000E+00  1.00000000E+00  9.91894048E-02  9.12612482E-01  1.00000000E+00
  1.00000000E+00  4.52107608E-01  6.08156234E-01 -1.00000000E+00  3.26115897E-02
  2.29804684E-01  7.57208324E-01  1.00000000E+00  1.00000000E+00  3.61836199E-01
  7.03930309E-01  1.00000000E+00  3.26115897E-02  2.29804684E-01  7.57208324E-01
  1.00000000E+00  1.00000000E+00  3.61836199E-01  7.03930309E-01  1.00000000E+00
  3.26115897E-02  2.29804684E-01  7.57208324E-01  1.00000000E+00  1.00000000E+00
  3.61836199E-01  7.03930309E-01  1.00000000E+00
Density Coordinates of each shell          R   N=          90
  0.00000000E+00  0.00000000E+00  2.42148646E-01  0.00000000E+00  0.00000000E+00
  2.42148646E-01  0.00000000E+00  0.00000000E+00  2.42148646E-01  0.00000000E+00
  0.00000000E+00  2.42148646E-01  0.00000000E+00  0.00000000E+00  2.42148646E-01
  0.00000000E+00  0.00000000E+00  2.42148646E-01  0.00000000E+00  0.00000000E+00
  2.42148646E-01  0.00000000E+00  0.00000000E+00  2.42148646E-01  0.00000000E+00
  0.00000000E+00  2.42148646E-01  0.00000000E+00  0.00000000E+00  2.42148646E-01
  0.00000000E+00  0.00000000E+00  2.42148646E-01  0.00000000E+00  0.00000000E+00
  2.42148646E-01  0.00000000E+00  0.00000000E+00  2.42148646E-01  0.00000000E+00
  0.00000000E+00  2.42148646E-01  0.00000000E+00  0.00000000E+00  2.42148646E-01
  0.00000000E+00  1.77314758E+00 -5.65013508E-01  0.00000000E+00  1.77314758E+00
 -5.65013508E-01  0.00000000E+00  1.77314758E+00 -5.65013508E-01  0.00000000E+00
  1.77314758E+00 -5.65013508E-01  0.00000000E+00  1.77314758E+00 -5.65013508E-01
 -1.53559085E+00 -8.86573790E-01 -5.65013508E-01 -1.53559085E+00 -8.86573790E-01
 -5.65013508E-01 -1.53559085E+00 -8.86573790E-01 -5.65013508E-01 -1.53559085E+00
 -8.86573790E-01 -5.65013508E-01 -1.53559085E+00 -8.86573790E-01 -5.65013508E-01
  1.53559085E+00 -8.86573790E-01 -5.65013508E-01  1.53559085E+00 -8.86573790E-01
 -5.65013508E-01  1.53559085E+00 -8.86573790E-01 -5.65013508E-01  1.53559085E+00
 -8.86573790E-01 -5.65013508E-01  1.53559085E+00 -8.86573790E-01 -5.65013508E-01
Constraint Structure                       R   N=          12
  0.00000000E+00  0.00000000E+00  2.42148646E-01  0.00000000E+00  1.77314758E+00
 -5.65013508E-01 -1.53559085E+00 -8.86573790E-01 -5.65013508E-01  1.53559085E+00
 -8.86573790E-01 -5.65013508E-01
Num ILSW                                   I              100
ILSW                                       I   N=         100
           0           0           0           0           2           0
           0           0           0           0        1009          -1
           5           0           0           0           2           0
           0           0           0           0           1           0
           1           0           0           0           0           0
           0           0      100000           0          -1           0
           0           0           0           0           0           0
           0           0           0           1           0           0
           0           0           1           0           0           0
           0           0           4          41           0           0
           0           0           0           0           0           0
           0           0           0           4           0           0
           0           0           0           0           0           0
           0           0           0           0           0           0
           0           0           0           0           0           0
           0           0           0           0           0           0
           0           0           0           0
Num RLSW                                   I               41
RLSW                                       R   N=          41
  1.00000000E+00  1.00000000E+00  1.00000000E+00  1.00000000E+00  0.00000000E+00
  0.00000000E+00  0.00000000E+00  1.00000000E+00  0.00000000E+00  0.00000000E+00
  0.00000000E+00  0.00000000E+00  1.00000000E+00  0.00000000E+00  0.00000000E+00
  0.00000000E+00  0.00000000E+00  1.00000000E+00  0.00000000E+00  0.00000000E+00
  0.00000000E+00  0.00000000E+00  1.00000000E+00  0.00000000E+00  0.00000000E+00
  0.00000000E+00  0.00000000E+00  1.00000000E+00  0.00000000E+00  0.00000000E+00
  0.00000000E+00  0.00000000E+00  1.00000000E+00  0.00000000E+00  0.00000000E+00
  0.00000000E+00  0.00000000E+00  0.00000000E+00  1.00000000E+00  1.00000000E+00
  0.00000000E+00
ECP-MxAtEC                                 I           250000
ECP-MaxLECP                                I               10
ECP-MaxAtL                                 I          2250000
ECP-MxTECP                                 I         11250000
ECP-LenNCZ                                 I                0
ECP-KFirst                                 I   N=          40
           0           0           0           0           0           0
           0           0           0           0           0           0
           0           0           0           0           0           0
           0           0           0           0           0           0
           0           0           0           0           0           0
           0           0           0           0           0           0
           0           0           0           0
ECP-KLast                                  I   N=          40
           0           0           0           0           0           0
           0           0           0           0           0           0
           0           0           0           0           0           0
           0           0           0           0           0           0
           0           0           0           0           0           0
           0           0           0           0           0           0
           0           0           0           0
ECP-LMax                                   I   N=           4
           0           0           0           0
ECP-LPSkip                                 I   N=           4
           1           1           1           1
ECP-RNFroz                                 R   N=           4
  0.00000000E+00  0.00000000E+00  0.00000000E+00  0.00000000E+00
ECP-NLP                                    I                0
ECP-CLP1                                   R      0.000000000000000E+00
ECP-CLP2                                   R      0.000000000000000E+00
ECP-ZLP                                    R      0.000000000000000E+00
MxBond                                     I                3
NBond                                      I   N=           4
           3           1           1           1
IBond                                      I   N=          12
           2           3           4           1           0           0
           1           0           0           1           0           0
RBond                                      R   N=          12
  1.00000000E+00  1.00000000E+00  1.00000000E+00  1.00000000E+00  0.00000000E+00
  0.00000000E+00  1.00000000E+00  0.00000000E+00  0.00000000E+00  1.00000000E+00
  0.00000000E+00  0.00000000E+00
Virial Ratio                               R      2.010037907399307E+00
SCF Energy                                 R     -5.643327333117058E+01
Total Energy                               R     -5.643327333117058E+01
RMS Force                                  R      6.409082666883800E-05
RMS Density                                R      4.218981949899833E-10
Job Status                                 I                1
Nuclear derivative order                   I                2
External E-field                           R   N=          35
  0.00000000E+00  0.00000000E+00  0.00000000E+00  0.00000000E+00  0.00000000E+00
  0.00000000E+00  0.00000000E+00  0.00000000E+00  0.00000000E+00  0.00000000E+00
  0.00000000E+00  0.00000000E+00  0.00000000E+00  0.00000000E+00  0.00000000E+00
  0.00000000E+00  0.00000000E+00  0.00000000E+00  0.00000000E+00  0.00000000E+00
  0.00000000E+00  0.00000000E+00  0.00000000E+00  0.00000000E+00  0.00000000E+00
  0.00000000E+00  0.00000000E+00  0.00000000E+00  0.00000000E+00  0.00000000E+00
  0.00000000E+00  0.00000000E+00  0.00000000E+00  0.00000000E+00  0.00000000E+00
IOpCl                                      I                0
IROHF                                      I                0
Alpha Orbital Energies                     R   N=          29
 -1.39688318E+01 -7.54602177E-01 -3.94816985E-01 -3.94816985E-01 -2.05524748E-01
  3.10757240E-02  1.13255915E-01  1.13255915E-01  4.71802990E-01  4.71802990E-01
  5.96365908E-01  6.98385408E-01  7.90932045E-01  7.90932045E-01  8.93478887E-01
  1.13489552E+00  1.13489552E+00  1.54707430E+00  1.59271346E+00  1.73736095E+00
  1.73736095E+00  1.99180440E+00  1.99180440E+00  2.39010026E+00  2.69911507E+00
  2.69911507E+00  2.75243350E+00  3.23790540E+00  3.23790540E+00
Alpha MO coefficients                      R   N=         841
  9.88069578E-01 -4.54128106E-02  1.85976051E-02  0.00000000E+00 -2.99049822E-16
 -4.03593373E-03  0.00000000E+00  8.10285183E-16 -4.88975212E-04  1.29942462E-03
  0.00000000E+00 -6.17401557E-16 -1.32951041E-16  0.00000000E+00  3.40736512E-03
 -2.97475263E-03  0.00000000E+00 -3.41424732E-03  1.54808266E-03  3.40736512E-03
 -2.97475263E-03  2.95682491E-03  1.70712366E-03  1.54808266E-03  3.40736512E-03
 -2.97475263E-03 -2.95682491E-03  1.70712366E-03  1.54808266E-03  2.58811798E-01
  5.18124131E-01  1.70260408E-01  0.00000000E+00 -2.11673513E-16  1.18394291E-01
  0.00000000E+00 -2.09335410E-15 -7.68947524E-03 -1.35353979E-03  0.00000000E+00
  4.01063353E-16  1.53296859E-16  0.00000000E+00  1.94414181E-01  2.51898665E-02
  0.00000000E+00 -2.67662700E-02  4.28169331E-03  1.94414181E-01  2.51898665E-02
  2.31802698E-02  1.33831350E-02  4.28169331E-03  1.94414181E-01  2.51898665E-02
 -2.31802698E-02  1.33831350E-02  4.28169331E-03  0.00000000E+00  0.00000000E+00
  0.00000000E+00  4.66502980E-01  0.00000000E+00  0.00000000E+00 -1.92026154E-01
  0.00000000E+00  0.00000000E+00  0.00000000E+00  2.15239113E-02  0.00000000E+00
  0.00000000E+00  8.38288817E-03  0.00000000E+00  0.00000000E+00 -2.21397828E-02
  0.00000000E+00  0.00000000E+00  3.24034606E-01  1.38279587E-01  6.77781200E-03
  1.66955812E-02  1.01220149E-02 -3.24034606E-01 -1.38279587E-01  6.77781200E-03
 -1.66955812E-02 -1.01220149E-02 -2.71176482E-16  1.78028350E-15 -1.40933398E-14
  0.00000000E+00  4.66502980E-01  8.13557782E-16  0.00000000E+00 -1.92026154E-01
  2.92230727E-15  6.21194424E-16  0.00000000E+00  2.15239113E-02  8.38288817E-03
  0.00000000E+00 -3.74162934E-01 -1.59671514E-01  0.00000000E+00  1.64170103E-02
 -1.16878960E-02  1.87081467E-01  7.98357568E-02  1.66955812E-02 -1.25005846E-02
  5.84394802E-03  1.87081467E-01  7.98357568E-02 -1.66955812E-02 -1.25005846E-02
  5.84394802E-03 -1.06225613E-01 -2.16261113E-01 -3.51346426E-01  0.00000000E+00
 -1.29503328E-15  5.36651318E-01  0.00000000E+00 -4.95626246E-16 -4.27489643E-01
  2.24963768E-02  0.00000000E+00  8.20219094E-17 -1.34852444E-16  0.00000000E+00
  9.36715362E-02  6.44121715E-02  0.00000000E+00 -1.00209114E-02 -2.25032080E-02
  9.36715362E-02  6.44121715E-02  8.67836387E-03  5.01045572E-03 -2.25032080E-02
  9.36715362E-02  6.44121715E-02 -8.67836387E-03  5.01045572E-03 -2.25032080E-02
  1.27804940E-01  2.20572893E-01  1.42543323E+00  0.00000000E+00 -1.85422241E-15
  2.06162656E-01  0.00000000E+00  1.00468306E-14 -3.60746718E-01  5.20815563E-03
  0.00000000E+00  2.64251634E-16  2.61210104E-16  0.00000000E+00 -8.68820803E-02
 -7.58150902E-01  0.00000000E+00 -6.20907312E-03  1.42534276E-03 -8.68820803E-02
 -7.58150902E-01  5.37721506E-03  3.10453656E-03  1.42534276E-03 -8.68820803E-02
 -7.58150902E-01 -5.37721506E-03  3.10453656E-03  1.42534276E-03  1.41360852E-15
  3.63076507E-15  7.55090841E-15  0.00000000E+00  4.03307379E-01  2.55261381E-15
  0.00000000E+00 -7.69284758E-01 -1.73962249E-15 -8.12394965E-16  0.00000000E+00
  8.59671616E-03 -7.46570916E-03  0.00000000E+00  1.38794032E-01  1.53925170E+00
  0.00000000E+00  6.36325043E-03 -7.08046064E-03 -6.93970160E-02 -7.69625848E-01
  5.90883957E-03 -3.87115992E-03  3.54023032E-03 -6.93970160E-02 -7.69625848E-01
 -5.90883957E-03 -3.87115992E-03  3.54023032E-03  0.00000000E+00  0.00000000E+00
  0.00000000E+00 -4.03307379E-01  0.00000000E+00  0.00000000E+00  7.69284758E-01
  0.00000000E+00  0.00000000E+00  0.00000000E+00 -8.59671616E-03  0.00000000E+00
  0.00000000E+00  7.46570916E-03  0.00000000E+00  0.00000000E+00  7.28263003E-03
  0.00000000E+00  0.00000000E+00  1.20199158E-01  1.33303107E+00 -2.95178031E-03
 -5.90883957E-03 -6.13185878E-03 -1.20199158E-01 -1.33303107E+00 -2.95178031E-03
  5.90883957E-03  6.13185878E-03  0.00000000E+00  0.00000000E+00  0.00000000E+00
 -1.51875535E-01  0.00000000E+00  0.00000000E+00  5.12668525E-01  0.00000000E+00
  0.00000000E+00  0.00000000E+00  6.72619225E-02  0.00000000E+00  0.00000000E+00
  9.24460861E-02  0.00000000E+00  0.00000000E+00  8.98310504E-02  0.00000000E+00
  0.00000000E+00  9.23952104E-01 -7.20222955E-01 -1.58887963E-02 -6.10373819E-02
 -4.43591135E-02 -9.23952104E-01  7.20222955E-01 -1.58887963E-02  6.10373819E-02
  4.43591135E-02 -4.16116302E-15 -2.25431465E-14  3.71735494E-14  0.00000000E+00
  1.51875535E-01 -6.18748511E-15  0.00000000E+00 -5.12668525E-01 -6.87479082E-15
 -1.24652861E-15  0.00000000E+00 -6.72619225E-02 -9.24460861E-02  0.00000000E+00
  1.06688799E+00 -8.31641834E-01  0.00000000E+00  5.11287452E-02 -5.12214923E-02
 -5.33443996E-01  4.15820917E-01  6.10373819E-02 -5.45911015E-02  2.56107461E-02
 -5.33443996E-01  4.15820917E-01 -6.10373819E-02 -5.45911015E-02  2.56107461E-02
 -1.79786210E-01 -8.31788363E-01  1.31908990E+00  0.00000000E+00  4.66009652E-15
 -3.99316486E-01  0.00000000E+00  1.99312595E-14 -3.09711792E-01 -7.46939928E-02
  0.00000000E+00  1.62322432E-15  7.02285552E-16  0.00000000E+00  5.75663850E-01
 -6.37751798E-01  0.00000000E+00  1.73434127E-01  1.62982676E-03  5.75663850E-01
 -6.37751798E-01 -1.50198360E-01 -8.67170635E-02  1.62982676E-03  5.75663850E-01
 -6.37751798E-01  1.50198360E-01 -8.67170635E-02  1.62982676E-03 -1.67074970E-01
 -8.40073726E-01  7.72453555E-01  0.00000000E+00  4.20266068E-15  8.48402032E-01
  0.00000000E+00  9.82281128E-15  9.62664029E-01  4.47129801E-04  0.00000000E+00
  4.09153088E-17 -6.49377399E-17  0.00000000E+00  1.64212614E-01 -1.17270537E-01
  0.00000000E+00 -1.36811152E-02  1.07662397E-02  1.64212614E-01 -1.17270537E-01
  1.18481933E-02  6.84055759E-03  1.07662397E-02  1.64212614E-01 -1.17270537E-01
 -1.18481933E-02  6.84055759E-03  1.07662397E-02  0.00000000E+00  0.00000000E+00
  0.00000000E+00  8.93077030E-01  0.00000000E+00  0.00000000E+00  1.73814236E+00
  0.00000000E+00  0.00000000E+00  0.00000000E+00 -3.45257921E-02  0.00000000E+00
  0.00000000E+00 -3.72511842E-02  0.00000000E+00  0.00000000E+00  6.82370230E-03
  0.00000000E+00  0.00000000E+00  6.32006654E-02  1.07590209E+00  1.51728475E-01
  8.36608094E-02  8.47375718E-02 -6.32006654E-02 -1.07590209E+00  1.51728475E-01
 -8.36608094E-02 -8.47375718E-02 -2.60655475E-15 -2.82334768E-14  7.87786956E-14
  0.00000000E+00  8.93077030E-01 -6.68860839E-15  0.00000000E+00  1.73814236E+00
 -2.79253155E-14  2.39468538E-15  0.00000000E+00 -3.45257921E-02 -3.72511842E-02
  0.00000000E+00 -7.29778423E-02 -1.24234472E+00  0.00000000E+00  2.00030066E-01
 -9.78465197E-02  3.64889212E-02  6.21172360E-01  8.36608094E-02  5.51252931E-02
  4.89232599E-02  3.64889212E-02  6.21172360E-01 -8.36608094E-02  5.51252931E-02
  4.89232599E-02 -1.81720885E-01 -1.49884374E+00  3.58296649E+00  0.00000000E+00
 -2.13046822E-14 -2.43283524E-01  0.00000000E+00 -4.52603579E-14 -9.16583176E-01
  1.01240345E-01  0.00000000E+00  1.09354128E-15  2.10166346E-15  0.00000000E+00
 -6.55472126E-01 -5.47497087E-01  0.00000000E+00 -1.01262503E-02 -1.67319546E-01
 -6.55472126E-01 -5.47497087E-01  8.76959002E-03  5.06312516E-03 -1.67319546E-01
 -6.55472126E-01 -5.47497087E-01 -8.76959002E-03  5.06312516E-03 -1.67319546E-01
  0.00000000E+00  0.00000000E+00  0.00000000E+00  1.80608502E-02  0.00000000E+00
  0.00000000E+00 -3.38980487E-01  0.00000000E+00  0.00000000E+00  0.00000000E+00
 -1.97299430E-01  0.00000000E+00  0.00000000E+00  1.62943706E-01  0.00000000E+00
  0.00000000E+00  4.91313867E-01  0.00000000E+00  0.00000000E+00 -1.38691933E-01
 -5.18237930E-02 -3.96456931E-02 -3.06549645E-01  3.84175219E-01  1.38691933E-01
  5.18237930E-02 -3.96456931E-02  3.06549645E-01 -3.84175219E-01  2.97150729E-16
  2.03350053E-15 -6.80928590E-15  0.00000000E+00 -1.80608502E-02 -7.89834106E-16
  0.00000000E+00  3.38980487E-01  5.92093192E-16  6.66360871E-16  0.00000000E+00
  1.97299430E-01 -1.62943706E-01  0.00000000E+00 -1.60147650E-01 -5.98409616E-02
  0.00000000E+00  2.16632213E-01  4.43607332E-01  8.00738248E-02  2.99204808E-02
  3.06549645E-01 -3.14327347E-01 -2.21803666E-01  8.00738248E-02  2.99204808E-02
 -3.06549645E-01 -3.14327347E-01 -2.21803666E-01  0.00000000E+00  0.00000000E+00
  0.00000000E+00  6.86325838E-16  0.00000000E+00  0.00000000E+00 -8.58060494E-15
  0.00000000E+00  0.00000000E+00  0.00000000E+00  6.48289127E-16  0.00000000E+00
  0.00000000E+00  3.25839736E-15  0.00000000E+00  0.00000000E+00  6.11890313E-01
  0.00000000E+00  0.00000000E+00 -4.84528059E-15 -2.25546570E-16 -3.05945157E-01
  5.29912556E-01 -6.07143604E-15  4.84528059E-15  2.25546570E-16 -3.05945157E-01
 -5.29912556E-01  6.07143604E-15 -9.23619782E-02 -8.69046840E-01  1.83548803E+00
  0.00000000E+00 -3.46217680E-15 -9.96434950E-02  0.00000000E+00 -1.44703379E-14
 -1.06742700E+00 -3.07393311E-01  0.00000000E+00 -1.13398669E-15  1.61050803E-15
  0.00000000E+00 -5.41034441E-01 -1.98205769E-01  0.00000000E+00  7.17693554E-02
  5.17517370E-01 -5.41034441E-01 -1.98205769E-01 -6.21540850E-02 -3.58846777E-02
  5.17517370E-01 -5.41034441E-01 -1.98205769E-01  6.21540850E-02 -3.58846777E-02
  5.17517370E-01  0.00000000E+00  0.00000000E+00  0.00000000E+00  3.37091284E-03
  0.00000000E+00  0.00000000E+00  9.22333299E-01  0.00000000E+00  0.00000000E+00
  0.00000000E+00  9.96490610E-02  0.00000000E+00  0.00000000E+00 -5.41151816E-02
  0.00000000E+00  0.00000000E+00 -6.35655384E-01  0.00000000E+00  0.00000000E+00
  3.40902411E-01  1.57081613E-01 -3.83349314E-01  1.45668977E-01  5.33141060E-01
 -3.40902411E-01 -1.57081613E-01 -3.83349314E-01 -1.45668977E-01 -5.33141060E-01
 -1.30090263E-16 -3.59663518E-15  1.37771546E-14  0.00000000E+00  3.37091284E-03
  1.43030274E-16  0.00000000E+00  9.22333299E-01 -9.50830378E-15 -4.84095071E-15
  0.00000000E+00  9.96490610E-02 -5.41151816E-02  0.00000000E+00 -3.93640198E-01
 -1.81382224E-01  0.00000000E+00 -2.99247291E-01 -6.15618269E-01  1.96820099E-01