 Entering Gaussian System, Link 0=g09
 Input=ammonia.df-b97d3svp.gjf
 Output=ammonia.df-b97d3svp.log
 Initial command:
 /home/chemsoft/gaussian/g09e01/g09/l1.exe "/scr/martin/g09job1104/Gau-13034.inp" -scrdir="/scr/martin/g09job1104/"
 Entering Link 1 = /home/chemsoft/gaussian/g09e01/g09/l1.exe PID=     13035.
  
 Copyright (c) 1988,1990,1992,1993,1995,1998,2003,2009,2015,
            Gaussian, Inc.  All Rights Reserved.
  
 This is part of the Gaussian(R) 09 program.  It is based on
 the Gaussian(R) 03 system (copyright 2003, Gaussian, Inc.),
 the Gaussian(R) 98 system (copyright 1998, Gaussian, Inc.),
 the Gaussian(R) 94 system (copyright 1995, Gaussian, Inc.),
 the Gaussian 92(TM) system (copyright 1992, Gaussian, Inc.),
 the Gaussian 90(TM) system (copyright 1990, Gaussian, Inc.),
 the Gaussian 88(TM) system (copyright 1988, Gaussian, Inc.),
 the Gaussian 86(TM) system (copyright 1986, Carnegie Mellon
 University), and the Gaussian 82(TM) system (copyright 1983,
 Carnegie Mellon University). Gaussian is a federally registered
 trademark of Gaussian, Inc.
  
 This software contains proprietary and confidential information,
 including trade secrets, belonging to Gaussian, Inc.
  
 This software is provided under written license and may be
 used, copied, transmitted, or stored only in accord with that
 written license.
  
 The following legend is applicable only to US Government
 contracts under FAR:
  
                    RESTRICTED RIGHTS LEGEND
  
 Use, reproduction and disclosure by the US Government is
 subject to restrictions as set forth in subparagraphs (a)
 and (c) of the Commercial Computer Software - Restricted
 Rights clause in FAR 52.227-19.
  
 Gaussian, Inc.
 340 Quinnipiac St., Bldg. 40, Wallingford CT 06492
  
  
 ---------------------------------------------------------------
 Warning -- This program may not be used in any manner that
 competes with the business of Gaussian, Inc. or will provide
 assistance to any competitor of Gaussian, Inc.  The licensee
 of this program is prohibited from giving any competitor of
 Gaussian, Inc. access to this program.  By using this program,
 the user acknowledges that Gaussian, Inc. is engaged in the
 business of creating and licensing software in the field of
 computational chemistry and represents and warrants to the
 licensee that it is not a competitor of Gaussian, Inc. and that
 it will not use this program in any manner prohibited above.
 ---------------------------------------------------------------
  

 Cite this work as:
 Gaussian 09, Revision E.01,
 M. J. Frisch, G. W. Trucks, H. B. Schlegel, G. E. Scuseria, 
 M. A. Robb, J. R. Cheeseman, G. Scalmani, V. Barone, B. Mennucci, 
 G. A. Petersson, H. Nakatsuji, M. Caricato, X. Li, H. P. Hratchian, 
 A. F. Izmaylov, J. Bloino, G. Zheng, J. L. Sonnenberg, M. Hada, 
 M. Ehara, K. Toyota, R. Fukuda, J. Hasegawa, M. Ishida, T. Nakajima, 
 Y. Honda, O. Kitao, H. Nakai, T. Vreven, J. A. Montgomery, Jr., 
 J. E. Peralta, F. Ogliaro, M. Bearpark, J. J. Heyd, E. Brothers, 
 K. N. Kudin, V. N. Staroverov, T. Keith, R. Kobayashi, J. Normand, 
 K. Raghavachari, A. Rendell, J. C. Burant, S. S. Iyengar, J. Tomasi, 
 M. Cossi, N. Rega, J. M. Millam, M. Klene, J. E. Knox, J. B. Cross, 
 V. Bakken, C. Adamo, J. Jaramillo, R. Gomperts, R. E. Stratmann, 
 O. Yazyev, A. J. Austin, R. Cammi, C. Pomelli, J. W. Ochterski, 
 R. L. Martin, K. Morokuma, V. G. Zakrzewski, G. A. Voth, 
 P. Salvador, J. J. Dannenberg, S. Dapprich, A. D. Daniels, 
 O. Farkas, J. B. Foresman, J. V. Ortiz, J. Cioslowski, 
 and D. J. Fox, Gaussian, Inc., Wallingford CT, 2013.
 
 ******************************************
 Gaussian 09:  ES64L-G09RevE.01 30-Nov-2015
                15-Feb-2018 
 ******************************************
 %chk=ammonia.df-b97d3svp.chk
 %nproc=2
 Will use up to    2 processors via shared memory.
 %mem=2000MB
 ----------------------------------------------------------------------
 #P B97D3/def2SVP/W06 DenFit opt(MaxCycle=100) scf(xqc,MaxConventionalC
 ycle=500) int(ultrafinegrid) gfinput gfoldprint iop(6/7=3) symmetry(lo
 ose)
 ----------------------------------------------------------------------
 1/6=100,14=-1,18=20,19=15,26=4,38=1/1,3;
 2/9=110,12=2,17=4,18=3,40=1/2;
 3/5=43,7=101,11=2,16=1,24=11,25=1,30=1,71=1,74=-59,75=-5,82=40/1,2,3;
 4//1;
 5/5=2,8=3,13=1,38=5,85=500/2,8;
 6/7=3,8=2,9=2,10=2,28=1/1;
 7//1,2,3,16;
 1/6=100,14=-1,18=20,19=15,26=4/3(2);
 2/9=110/2;
 99//99;
 2/9=110/2;
 3/5=43,7=101,11=2,16=1,25=1,30=1,71=1,74=-59,75=-5,82=40/1,2,3;
 4/5=5,16=3,69=1/1;
 5/5=2,8=3,13=1,38=5,85=500/2,8;
 7//1,2,3,16;
 1/6=100,14=-1,18=20,19=15,26=4/3(-5);
 2/9=110/2;
 6/7=3,8=2,9=2,10=2,19=2,28=1/1;
 99/9=1/99;
 Leave Link    1 at Thu Feb 15 13:06:49 2018, MaxMem=   262144000 cpu:         0.3
 (Enter /home/chemsoft/gaussian/g09e01/g09/l101.exe)
 -------------------------
 Ammonia DF-B97D3/def2-SVP
 -------------------------
 Symbolic Z-matrix:
 Charge =  0 Multiplicity = 1
 N                     0.        0.       -0.07057 
 H                    -0.93718   0.        0.32685 
 H                     0.46859   0.81162   0.32685 
 H                     0.46859  -0.81162   0.32685 
 
 NAtoms=      4 NQM=        4 NQMF=       0 NMMI=      0 NMMIF=      0
                NMic=       0 NMicF=      0.
                    Isotopes and Nuclear Properties:
 (Nuclear quadrupole moments (NQMom) in fm**2, nuclear magnetic moments (NMagM)
  in nuclear magnetons)

  Atom         1           2           3           4
 IAtWgt=          14           1           1           1
 AtmWgt=  14.0030740   1.0078250   1.0078250   1.0078250
 NucSpn=           2           1           1           1
 AtZEff=   0.0000000   0.0000000   0.0000000   0.0000000
 NQMom=    2.0440000   0.0000000   0.0000000   0.0000000
 NMagM=    0.4037610   2.7928460   2.7928460   2.7928460
 AtZNuc=   7.0000000   1.0000000   1.0000000   1.0000000
 Leave Link  101 at Thu Feb 15 13:06:50 2018, MaxMem=   262144000 cpu:         0.5
 (Enter /home/chemsoft/gaussian/g09e01/g09/l103.exe)

 GradGradGradGradGradGradGradGradGradGradGradGradGradGradGradGradGradGrad
 Berny optimization.
 Initialization pass.
                           ----------------------------
                           !    Initial Parameters    !
                           ! (Angstroms and Degrees)  !
 --------------------------                            --------------------------
 ! Name  Definition              Value          Derivative Info.                !
 --------------------------------------------------------------------------------
 ! R1    R(1,2)                  1.018          estimate D2E/DX2                !
 ! R2    R(1,3)                  1.018          estimate D2E/DX2                !
 ! R3    R(1,4)                  1.018          estimate D2E/DX2                !
 ! A1    A(2,1,3)              105.7458         estimate D2E/DX2                !
 ! A2    A(2,1,4)              105.7458         estimate D2E/DX2                !
 ! A3    A(3,1,4)              105.7458         estimate D2E/DX2                !
 ! D1    D(2,1,4,3)           -111.8661         estimate D2E/DX2                !
 --------------------------------------------------------------------------------
 Trust Radius=3.00D-01 FncErr=1.00D-07 GrdErr=1.00D-06
 Number of steps in this run=    100 maximum allowed number of steps=    100.
 GradGradGradGradGradGradGradGradGradGradGradGradGradGradGradGradGradGrad

 Leave Link  103 at Thu Feb 15 13:06:50 2018, MaxMem=   262144000 cpu:         0.0
 (Enter /home/chemsoft/gaussian/g09e01/g09/l202.exe)
                          Input orientation:                          
 ---------------------------------------------------------------------
 Center     Atomic      Atomic             Coordinates (Angstroms)
 Number     Number       Type             X           Y           Z
 ---------------------------------------------------------------------
      1          7           0        0.000000    0.000000   -0.070572
      2          1           0       -0.937180    0.000000    0.326851
      3          1           0        0.468590    0.811621    0.326851
      4          1           0        0.468590   -0.811621    0.326851
 ---------------------------------------------------------------------
                    Distance matrix (angstroms):
                    1          2          3          4
     1  N    0.000000
     2  H    1.017964   0.000000
     3  H    1.017964   1.623243   0.000000
     4  H    1.017964   1.623243   1.623243   0.000000
 Stoichiometry    H3N
 Framework group  C3V[C3(N),3SGV(H)]
 Deg. of freedom     2
 Full point group                 C3V     NOp   6
 Largest Abelian subgroup         CS      NOp   2
 Largest concise Abelian subgroup CS      NOp   2
                         Standard orientation:                         
 ---------------------------------------------------------------------
 Center     Atomic      Atomic             Coordinates (Angstroms)
 Number     Number       Type             X           Y           Z
 ---------------------------------------------------------------------
      1          7           0        0.000000    0.000000    0.119227
      2          1           0        0.000000    0.937180   -0.278196
      3          1           0       -0.811621   -0.468590   -0.278196
      4          1           0        0.811621   -0.468590   -0.278196
 ---------------------------------------------------------------------
 Rotational constants (GHZ):    293.7377022    293.7377022    190.3115482
 Leave Link  202 at Thu Feb 15 13:06:50 2018, MaxMem=   262144000 cpu:         0.0
 (Enter /home/chemsoft/gaussian/g09e01/g09/l301.exe)
 Standard basis: def2SVP (5D, 7F)
 ======================================================================================================
                                       Pseudopotential Parameters
 ======================================================================================================
  Center     Atomic      Valence      Angular      Power
  Number     Number     Electrons     Momentum     of R      Exponent        Coefficient   SO-Coeffient
 ======================================================================================================
    1          7
                                   No pseudopotential on this center.
    2          1
                                   No pseudopotential on this center.
    3          1
                                   No pseudopotential on this center.
    4          1
                                   No pseudopotential on this center.
 ======================================================================================================
 Ernie: Thresh=  0.10000D-02 Tol=  0.10000D-05 Strict=F.
 AO basis set in the form of general basis input (Overlap normalization):
      1 0
 S   5 1.00       0.000000000000
      0.1712841585D+04 -0.5447799580D-02
      0.2576481268D+03 -0.4062717463D-01
      0.5845824585D+02 -0.1811196225D+00
      0.1619836791D+02 -0.4684397556D+00
      0.5005260081D+01 -0.4461684629D+00
 S   1 1.00       0.000000000000
      0.5873185657D+00  0.1000000000D+01
 S   1 1.00       0.000000000000
      0.1876459225D+00  0.1000000000D+01
 P   3 1.00       0.000000000000
      0.1357147023D+02 -0.5884811697D-01
      0.2925737287D+01 -0.3202462476D+00
      0.7992775075D+00 -0.7532822652D+00
 P   1 1.00       0.000000000000
      0.2195434803D+00  0.1000000000D+01
 D   1 1.00       0.000000000000
      0.1000000000D+01  0.1000000000D+01
 ****
      2 0
 S   3 1.00       0.000000000000
      0.1301070100D+02  0.3348548481D-01
      0.1962257200D+01  0.2347218709D+00
      0.4445379600D+00  0.8137702853D+00
 S   1 1.00       0.000000000000
      0.1219496200D+00  0.1000000000D+01
 P   1 1.00       0.000000000000
      0.8000000000D+00  0.1000000000D+01
 ****
      3 0
 S   3 1.00       0.000000000000
      0.1301070100D+02  0.3348548481D-01
      0.1962257200D+01  0.2347218709D+00
      0.4445379600D+00  0.8137702853D+00
 S   1 1.00       0.000000000000
      0.1219496200D+00  0.1000000000D+01
 P   1 1.00       0.000000000000
      0.8000000000D+00  0.1000000000D+01
 ****
      4 0
 S   3 1.00       0.000000000000
      0.1301070100D+02  0.3348548481D-01
      0.1962257200D+01  0.2347218709D+00
      0.4445379600D+00  0.8137702853D+00
 S   1 1.00       0.000000000000
      0.1219496200D+00  0.1000000000D+01
 P   1 1.00       0.000000000000
      0.8000000000D+00  0.1000000000D+01
 ****

 ***********************************************************************************************************************************
 *             ATOMIC CENTER             *        ATOMIC ORBITAL       *                     GAUSSIAN FUNCTIONS                    *
 ***********************************************************************************************************************************
 *                                       * FUNCTION    SHELL    SCALE  *                                                           *
 *    ATOM   X-COORD  Y-COORD  Z-COORD   *  NUMBER     TYPE     FACTOR *  EXPONENT    S-COEF      P-COEF      D-COEF      F-COEF   *
 ***********************************************************************************************************************************
 *     N      0.00000  0.00000  0.22531                                                                                            *
+                                                1   S           1.00                                                               
+                                                                      0.171284D+04-.103376D+010.000000D+000.000000D+000.000000D+00 
 *                                                                     0.257648D+03-.186207D+010.000000D+000.000000D+000.000000D+00*
 *                                                                     0.584582D+02-.272904D+010.000000D+000.000000D+000.000000D+00*
 *                                                                     0.161984D+02-.269567D+010.000000D+000.000000D+000.000000D+00*
 *                                                                     0.500526D+01-.106409D+010.000000D+000.000000D+000.000000D+00*
 *                                               2   S           1.00                                                              *
+                                                                      0.587319D+000.478151D+000.000000D+000.000000D+000.000000D+00 
 *                                               3   S           1.00                                                              *
+                                                                      0.187646D+000.203196D+000.000000D+000.000000D+000.000000D+00 
 *                                           4-  6   P           1.00                                                              *
+                                                                      0.135715D+020.000000D+00-.218502D+010.000000D+000.000000D+00 
 *                                                                     0.292574D+010.000000D+00-.174670D+010.000000D+000.000000D+00*
 *                                                                     0.799278D+000.000000D+00-.811465D+000.000000D+000.000000D+00*
 *                                           7-  9   P           1.00                                                              *
+                                                                      0.219543D+000.000000D+000.214211D+000.000000D+000.000000D+00 
 *                                          10- 14   D           1.00                                                              *
+                                                                      0.100000D+010.000000D+000.000000D+000.164592D+010.000000D+00 
 *---------------------------------------------------------------------------------------------------------------------------------*
 *     H      0.00000  1.77101 -0.52571                                                                                            *
+                                               15   S           1.00                                                               
+                                                                      0.130107D+020.163490D+000.000000D+000.000000D+000.000000D+00 
 *                                                                     0.196226D+010.277352D+000.000000D+000.000000D+000.000000D+00*
 *                                                                     0.444538D+000.315750D+000.000000D+000.000000D+000.000000D+00*
 *                                              16   S           1.00                                                              *
+                                                                      0.121950D+000.147077D+000.000000D+000.000000D+000.000000D+00 
 *                                          17- 19   P           1.00                                                              *
+                                                                      0.800000D+000.000000D+000.107846D+010.000000D+000.000000D+00 
 *---------------------------------------------------------------------------------------------------------------------------------*
 *     H     -1.53374 -0.88551 -0.52571                                                                                            *
+                                               20   S           1.00                                                               
+                                                                      0.130107D+020.163490D+000.000000D+000.000000D+000.000000D+00 
 *                                                                     0.196226D+010.277352D+000.000000D+000.000000D+000.000000D+00*
 *                                                                     0.444538D+000.315750D+000.000000D+000.000000D+000.000000D+00*
 *                                              21   S           1.00                                                              *
+                                                                      0.121950D+000.147077D+000.000000D+000.000000D+000.000000D+00 
 *                                          22- 24   P           1.00                                                              *
+                                                                      0.800000D+000.000000D+000.107846D+010.000000D+000.000000D+00 
 *---------------------------------------------------------------------------------------------------------------------------------*
 *     H      1.53374 -0.88551 -0.52571                                                                                            *
+                                               25   S           1.00                                                               
+                                                                      0.130107D+020.163490D+000.000000D+000.000000D+000.000000D+00 
 *                                                                     0.196226D+010.277352D+000.000000D+000.000000D+000.000000D+00*
 *                                                                     0.444538D+000.315750D+000.000000D+000.000000D+000.000000D+00*
 *                                              26   S           1.00                                                              *
+                                                                      0.121950D+000.147077D+000.000000D+000.000000D+000.000000D+00 
 *                                          27- 29   P           1.00                                                              *
+                                                                      0.800000D+000.000000D+000.107846D+010.000000D+000.000000D+00 
 ***********************************************************************************************************************************
 There are    20 symmetry adapted cartesian basis functions of A'  symmetry.
 There are    10 symmetry adapted cartesian basis functions of A"  symmetry.
 There are    19 symmetry adapted basis functions of A'  symmetry.
 There are    10 symmetry adapted basis functions of A"  symmetry.
    29 basis functions,    46 primitive gaussians,    30 cartesian basis functions
     5 alpha electrons        5 beta electrons
       nuclear repulsion energy        11.8946157701 Hartrees.
 IExCor= 3630 DFT=T Ex+Corr=B97D3 ExCW=0 ScaHFX=  0.000000
 ScaDFX=  1.000000  1.000000  1.000000  1.000000 ScalE2=  1.000000  1.000000
 IRadAn=      5 IRanWt=     -1 IRanGd=            0 ICorTp=0 IEmpDi=141
 NAtoms=    4 NActive=    4 NUniq=    2 SFac= 4.00D+00 NAtFMM=   60 NAOKFM=F Big=F
 Integral buffers will be    131072 words long.
 Raffenetti 2 integral format.
 Two-electron integral symmetry is turned on.
 R6Disp:  Grimme-D3(BJ) Dispersion energy=       -0.0026846518 Hartrees.
 Nuclear repulsion after empirical dispersion term =       11.8919311183 Hartrees.
 Standard density basis: W06 (5D, 7F)
    82 Density fitting functions
 Density basis set in the form of general basis input (Coulomb normalization):
      1 0
 S   7 1.00       0.000000000000
      0.2542940178D+04  0.1572679885D-02
      0.1029547295D+04  0.3977044477D-02
      0.4249053546D+03  0.1953766111D-01
      0.1784573708D+03  0.7476264413D-01
      0.7613627420D+02  0.2189767433D+00
      0.3293386530D+02  0.4216718799D+00
      0.1441554360D+02  0.2964029094D+00
 S   1 1.00       0.000000000000
      0.6371889100D+01 -0.1000000000D+01
 S   1 1.00       0.000000000000
      0.2838174200D+01  0.1000000000D+01
 S   1 1.00       0.000000000000
      0.1271179300D+01  0.1000000000D+01
 S   1 1.00       0.000000000000
      0.5712407000D+00  0.1000000000D+01
 S   1 1.00       0.000000000000
      0.2569887000D+00  0.1000000000D+01
 P   2 1.00       0.000000000000
      0.1789759900D+02 -0.1198132470D+01
      0.6534631900D+01  0.2493564618D+00
 P   1 1.00       0.000000000000
      0.2352364500D+01  0.1000000000D+01
 P   1 1.00       0.000000000000
      0.8397377000D+00  0.1000000000D+01
 P   1 1.00       0.000000000000
      0.2989335000D+00  0.1000000000D+01
 D   2 1.00       0.000000000000
      0.7690987000D+01  0.9918940482D-01
      0.2304497200D+01  0.9126124820D+00
 D   1 1.00       0.000000000000
      0.8403987000D+00  0.1000000000D+01
 D   1 1.00       0.000000000000
      0.3303797000D+00  0.1000000000D+01
 F   2 1.00       0.000000000000
      0.2333107600D+01  0.4521076083D+00
      0.8446137000D+00  0.6081562343D+00
 G   1 1.00       0.000000000000
      0.1403770000D+01 -0.1000000000D+01
 ****
      2 0
 S   3 1.00       0.000000000000
      0.1567529270D+02  0.3261158972D-01
      0.3606357800D+01  0.2298046837D+00
      0.1208001600D+01  0.7572083240D+00
 S   1 1.00       0.000000000000
      0.4726794000D+00  0.1000000000D+01
 S   1 1.00       0.000000000000
      0.2018100000D+00  0.1000000000D+01
 P   2 1.00       0.000000000000
      0.2028136500D+01  0.3618361986D+00
      0.5358730000D+00  0.7039303088D+00
 D   1 1.00       0.000000000000
      0.2216512400D+01  0.1000000000D+01
 ****
      3 0
 S   3 1.00       0.000000000000
      0.1567529270D+02  0.3261158972D-01
      0.3606357800D+01  0.2298046837D+00
      0.1208001600D+01  0.7572083240D+00
 S   1 1.00       0.000000000000
      0.4726794000D+00  0.1000000000D+01
 S   1 1.00       0.000000000000
      0.2018100000D+00  0.1000000000D+01
 P   2 1.00       0.000000000000
      0.2028136500D+01  0.3618361986D+00
      0.5358730000D+00  0.7039303088D+00
 D   1 1.00       0.000000000000
      0.2216512400D+01  0.1000000000D+01
 ****
      4 0
 S   3 1.00       0.000000000000
      0.1567529270D+02  0.3261158972D-01
      0.3606357800D+01  0.2298046837D+00
      0.1208001600D+01  0.7572083240D+00
 S   1 1.00       0.000000000000
      0.4726794000D+00  0.1000000000D+01
 S   1 1.00       0.000000000000
      0.2018100000D+00  0.1000000000D+01
 P   2 1.00       0.000000000000
      0.2028136500D+01  0.3618361986D+00
      0.5358730000D+00  0.7039303088D+00
 D   1 1.00       0.000000000000
      0.2216512400D+01  0.1000000000D+01
 ****

 There are    82 symmetry adapted density basis functions of A   symmetry.
 Leave Link  301 at Thu Feb 15 13:06:50 2018, MaxMem=   262144000 cpu:         0.4
 (Enter /home/chemsoft/gaussian/g09e01/g09/l302.exe)
 NPDir=0 NMtPBC=     1 NCelOv=     1 NCel=       1 NClECP=     1 NCelD=      1
         NCelK=      1 NCelE2=     1 NClLst=     1 CellRange=     0.0.
 One-electron integrals computed using PRISM.
 One-electron integral symmetry used in STVInt
   6 Symmetry operations used in ECPInt.
 ECPInt:  NShTT=     120 NPrTT=     400 LenC2=     121 LenP2D=     397.
 LDataN:  DoStor=T MaxTD1= 4 Len=   56
 NBasis=    29 RedAO= T EigKep=  3.57D-02  NBF=    19    10
 NBsUse=    29 1.00D-06 EigRej= -1.00D+00 NBFU=    19    10
 NBasis=       29 NBas6D=       30 NTT=         435   NTT6D=      465
 NDBShl=       30 NDBF=         82 NDBF6D=       97  NNucDB=        0
 IDenFi=        2 ISolve=        0 FullAP=F BlkAPC=T NucTyp=        0
 TolInv= 1.00D-06 TolIt=  1.00D-10 IR12=0.
 FoFCou: FMM=F IPFlag=           0 FMFlag=           0 FMFlg1=           0
         NFxFlg=           0 DoJE=F BraDBF=T KetDBF=T FulRan=T
         wScrn=  0.000000 ICntrl=     600 IOpCl=  3 I1Cent=           6 NGrid=           0
         NMat0=    1 NMatS0=     97 NMatT0=    0 NMatD0=    1 NMtDS0=    0 NMtDT0=    0
 Petite list used in FoFCou.
 DBF EigKep=  2.23D-04 EigRej= -1.00D+00
 NDBF=     82  NBFD=    82
 NRank=    82 NBFDU=    82
 S*AI*S=  4.69510056737    
 Precomputing XC quadrature grid using
 IXCGrd= 4 IRadAn=           5 IRanWt=          -1 IRanGd=           0 AccXCQ= 0.00D+00.
 Generated NRdTot=       0 NPtTot=           0 NUsed=           0 NTot=          32
 NSgBfM=    30    30    30    30    30 MxSgAt=     4 MxSgA2=     4.
 Leave Link  302 at Thu Feb 15 13:06:51 2018, MaxMem=   262144000 cpu:         0.8
 (Enter /home/chemsoft/gaussian/g09e01/g09/l303.exe)
 DipDrv:  MaxL=1.
 Leave Link  303 at Thu Feb 15 13:06:51 2018, MaxMem=   262144000 cpu:         0.1
 (Enter /home/chemsoft/gaussian/g09e01/g09/l401.exe)
 ExpMin= 1.22D-01 ExpMax= 1.71D+03 ExpMxC= 2.58D+02 IAcc=3 IRadAn=         5 AccDes= 0.00D+00
 Harris functional with IExCor= 3630 and IRadAn=       5 diagonalized for initial guess.
 HarFok:  IExCor= 3630 AccDes= 0.00D+00 IRadAn=         5 IDoV= 1 UseB2=F ITyADJ=14
 ICtDFT=  3500011 ScaDFX=  1.000000  1.000000  1.000000  1.000000
 FoFCou: FMM=F IPFlag=           0 FMFlag=      100000 FMFlg1=           0
         NFxFlg=           0 DoJE=T BraDBF=F KetDBF=T FulRan=T
         wScrn=  0.000000 ICntrl=     500 IOpCl=  0 I1Cent=   200000004 NGrid=           0
         NMat0=    1 NMatS0=      1 NMatT0=    0 NMatD0=    1 NMtDS0=    0 NMtDT0=    0
 Petite list used in FoFCou.
 Harris En= -56.5233516526094    
 JPrj=0 DoOrth=F DoCkMO=F.
 Initial guess orbital symmetries:
       Occupied  (A1) (A1) (E) (E) (A1)
       Virtual   (A1) (E) (E) (E) (E) (A1) (A1) (E) (E) (A1) (E)
                 (E) (A2) (A1) (E) (E) (E) (E) (A1) (E) (E) (A1)
                 (E) (E)
 The electronic state of the initial guess is 1-A1.
 Leave Link  401 at Thu Feb 15 13:06:51 2018, MaxMem=   262144000 cpu:         0.8
 (Enter /home/chemsoft/gaussian/g09e01/g09/l502.exe)
 Closed shell SCF:
 Density fitting will be used, IDenFit= 2 NucTyp=  0.
 Using DIIS extrapolation, IDIIS=  1040.
 Integral symmetry usage will be decided dynamically.
 IVT=      257426 IEndB=      257426 NGot=   262144000 MDV=   262138505
 LenX=   262138505 LenY=   262137164
 Requested convergence on RMS density matrix=1.00D-08 within 500 cycles.
 Requested convergence on MAX density matrix=1.00D-06.
 Requested convergence on             energy=1.00D-06.
 No special actions if energy rises.
 Fock matrices will be formed incrementally for  20 cycles.

 Cycle   1  Pass 0  IDiag  1:
 FoFCou: FMM=F IPFlag=           0 FMFlag=      100000 FMFlg1=           0
         NFxFlg=           0 DoJE=T BraDBF=T KetDBF=F FulRan=T
         wScrn=  0.000000 ICntrl=     500 IOpCl=  0 I1Cent=           5 NGrid=           0
         NMat0=    1 NMatS0=      1 NMatT0=    0 NMatD0=    1 NMtDS0=    0 NMtDT0=    0
 Petite list used in FoFCou.
 FoFJK:  IHMeth= 1 ICntrl=     500 DoSepK=F KAlg= 0 I1Cent=   4 FoldK=F
 IRaf= 990000000 NMat=   1 IRICut=       1 DoRegI=T DoRafI=F ISym2E= 1.
 E= -56.4031542102834    
 DIIS: error= 6.46D-02 at cycle   1 NSaved=   1.
 NSaved= 1 IEnMin= 1 EnMin= -56.4031542102834     IErMin= 1 ErrMin= 6.46D-02
 ErrMax= 6.46D-02  0.00D+00 EMaxC= 1.00D-01 BMatC= 8.27D-02 BMatP= 8.27D-02
 IDIUse=3 WtCom= 3.54D-01 WtEn= 6.46D-01
 Coeff-Com:  0.100D+01
 Coeff-En:   0.100D+01
 Coeff:      0.100D+01
 Gap=     0.116 Goal=   None    Shift=    0.000
 GapD=    0.116 DampG=1.000 DampE=0.500 DampFc=0.5000 IDamp=-1.
 Damping current iteration by 5.00D-01
 RMSDP=2.33D-02 MaxDP=2.33D-01              OVMax= 2.16D-01

 Cycle   2  Pass 0  IDiag  1:
 RMSU=  1.15D-02    CP:  9.68D-01
 E= -56.4196821963915     Delta-E=       -0.016527986108 Rises=F Damp=T
 DIIS: error= 1.95D-02 at cycle   2 NSaved=   2.
 NSaved= 2 IEnMin= 2 EnMin= -56.4196821963915     IErMin= 2 ErrMin= 1.95D-02
 ErrMax= 1.95D-02  0.00D+00 EMaxC= 1.00D-01 BMatC= 9.29D-03 BMatP= 8.27D-02
 IDIUse=3 WtCom= 8.05D-01 WtEn= 1.95D-01
 Coeff-Com:  0.245D+00 0.755D+00
 Coeff-En:   0.399D+00 0.601D+00
 Coeff:      0.275D+00 0.725D+00
 Gap=     0.227 Goal=   None    Shift=    0.000
 RMSDP=4.59D-03 MaxDP=6.93D-02 DE=-1.65D-02 OVMax= 1.45D-01

 Cycle   3  Pass 0  IDiag  1:
 RMSU=  2.40D-03    CP:  9.75D-01  6.62D-01
 E= -56.4776227912970     Delta-E=       -0.057940594905 Rises=F Damp=F
 DIIS: error= 3.08D-03 at cycle   3 NSaved=   3.
 NSaved= 3 IEnMin= 3 EnMin= -56.4776227912970     IErMin= 3 ErrMin= 3.08D-03
 ErrMax= 3.08D-03  0.00D+00 EMaxC= 1.00D-01 BMatC= 2.61D-04 BMatP= 9.29D-03
 IDIUse=3 WtCom= 9.69D-01 WtEn= 3.08D-02
 Coeff-Com:  0.599D-01 0.390D-01 0.901D+00
 Coeff-En:   0.000D+00 0.000D+00 0.100D+01
 Coeff:      0.580D-01 0.378D-01 0.904D+00
 Gap=     0.242 Goal=   None    Shift=    0.000
 RMSDP=3.96D-04 MaxDP=3.82D-03 DE=-5.79D-02 OVMax= 4.23D-03

 Cycle   4  Pass 0  IDiag  1:
 RMSU=  2.54D-04    CP:  9.76D-01  6.40D-01  9.38D-01
 E= -56.4778293954276     Delta-E=       -0.000206604131 Rises=F Damp=F
 DIIS: error= 4.51D-04 at cycle   4 NSaved=   4.
 NSaved= 4 IEnMin= 4 EnMin= -56.4778293954276     IErMin= 4 ErrMin= 4.51D-04
 ErrMax= 4.51D-04  0.00D+00 EMaxC= 1.00D-01 BMatC= 4.14D-06 BMatP= 2.61D-04
 IDIUse=3 WtCom= 9.95D-01 WtEn= 4.51D-03
 Coeff-Com:  0.835D-02-0.159D-01 0.237D+00 0.771D+00
 Coeff-En:   0.000D+00 0.000D+00 0.000D+00 0.100D+01
 Coeff:      0.831D-02-0.158D-01 0.236D+00 0.772D+00
 Gap=     0.242 Goal=   None    Shift=    0.000
 RMSDP=6.16D-05 MaxDP=5.30D-04 DE=-2.07D-04 OVMax= 6.76D-04

 Cycle   5  Pass 0  IDiag  1:
 RMSU=  2.98D-05    CP:  9.76D-01  6.38D-01  9.49D-01  8.36D-01
 E= -56.4778327887244     Delta-E=       -0.000003393297 Rises=F Damp=F
 DIIS: error= 8.86D-05 at cycle   5 NSaved=   5.
 NSaved= 5 IEnMin= 5 EnMin= -56.4778327887244     IErMin= 5 ErrMin= 8.86D-05
 ErrMax= 8.86D-05  0.00D+00 EMaxC= 1.00D-01 BMatC= 1.47D-07 BMatP= 4.14D-06
 IDIUse=1 WtCom= 1.00D+00 WtEn= 0.00D+00
 Coeff-Com:  0.171D-02-0.119D-02 0.150D-01 0.467D-01 0.938D+00
 Coeff:      0.171D-02-0.119D-02 0.150D-01 0.467D-01 0.938D+00
 Gap=     0.242 Goal=   None    Shift=    0.000
 RMSDP=1.11D-05 MaxDP=8.54D-05 DE=-3.39D-06 OVMax= 1.21D-04

 Cycle   6  Pass 0  IDiag  1:
 RMSU=  1.35D-06    CP:  9.76D-01  6.37D-01  9.48D-01  8.33D-01  9.36D-01
 E= -56.4778329290958     Delta-E=       -0.000000140371 Rises=F Damp=F
 DIIS: error= 2.12D-06 at cycle   6 NSaved=   6.
 NSaved= 6 IEnMin= 6 EnMin= -56.4778329290958     IErMin= 6 ErrMin= 2.12D-06
 ErrMax= 2.12D-06  0.00D+00 EMaxC= 1.00D-01 BMatC= 1.53D-10 BMatP= 1.47D-07
 IDIUse=1 WtCom= 1.00D+00 WtEn= 0.00D+00
 Coeff-Com:  0.552D-04 0.346D-04-0.566D-03-0.338D-02 0.303D-01 0.974D+00
 Coeff:      0.552D-04 0.346D-04-0.566D-03-0.338D-02 0.303D-01 0.974D+00
 Gap=     0.242 Goal=   None    Shift=    0.000
 RMSDP=3.99D-07 MaxDP=3.93D-06 DE=-1.40D-07 OVMax= 3.15D-06

 Initial convergence to 1.0D-05 achieved.  Increase integral accuracy.
 Cycle   7  Pass 1  IDiag  1:
 E= -56.4778331777127     Delta-E=       -0.000000248617 Rises=F Damp=F
 DIIS: error= 8.77D-07 at cycle   1 NSaved=   1.
 NSaved= 1 IEnMin= 1 EnMin= -56.4778331777127     IErMin= 1 ErrMin= 8.77D-07
 ErrMax= 8.77D-07  0.00D+00 EMaxC= 1.00D-01 BMatC= 2.22D-11 BMatP= 2.22D-11
 IDIUse=1 WtCom= 1.00D+00 WtEn= 0.00D+00
 Coeff-Com:  0.100D+01
 Coeff:      0.100D+01
 Gap=     0.242 Goal=   None    Shift=    0.000
 RMSDP=3.99D-07 MaxDP=3.93D-06 DE=-2.49D-07 OVMax= 2.08D-06

 Cycle   8  Pass 1  IDiag  1:
 RMSU=  2.19D-07    CP:  1.00D+00
 E= -56.4778331777258     Delta-E=       -0.000000000013 Rises=F Damp=F
 DIIS: error= 6.67D-07 at cycle   2 NSaved=   2.
 NSaved= 2 IEnMin= 2 EnMin= -56.4778331777258     IErMin= 2 ErrMin= 6.67D-07
 ErrMax= 6.67D-07  0.00D+00 EMaxC= 1.00D-01 BMatC= 9.36D-12 BMatP= 2.22D-11
 IDIUse=1 WtCom= 1.00D+00 WtEn= 0.00D+00
 Coeff-Com:  0.362D+00 0.638D+00
 Coeff:      0.362D+00 0.638D+00
 Gap=     0.242 Goal=   None    Shift=    0.000
 RMSDP=1.38D-07 MaxDP=1.29D-06 DE=-1.32D-11 OVMax= 1.39D-06

 Cycle   9  Pass 1  IDiag  1:
 RMSU=  1.37D-07    CP:  1.00D+00  9.26D-01
 E= -56.4778331777304     Delta-E=       -0.000000000005 Rises=F Damp=F
 DIIS: error= 4.61D-07 at cycle   3 NSaved=   3.
 NSaved= 3 IEnMin= 3 EnMin= -56.4778331777304     IErMin= 3 ErrMin= 4.61D-07
 ErrMax= 4.61D-07  0.00D+00 EMaxC= 1.00D-01 BMatC= 4.44D-12 BMatP= 9.36D-12
 IDIUse=1 WtCom= 1.00D+00 WtEn= 0.00D+00
 Coeff-Com:  0.234D-01 0.408D+00 0.569D+00
 Coeff:      0.234D-01 0.408D+00 0.569D+00
 Gap=     0.242 Goal=   None    Shift=    0.000
 RMSDP=5.72D-08 MaxDP=5.37D-07 DE=-4.52D-12 OVMax= 5.75D-07

 Cycle  10  Pass 1  IDiag  1:
 RMSU=  1.22D-08    CP:  1.00D+00  9.34D-01  5.94D-01
 E= -56.4778331777340     Delta-E=       -0.000000000004 Rises=F Damp=F
 DIIS: error= 1.28D-08 at cycle   4 NSaved=   4.
 NSaved= 4 IEnMin= 4 EnMin= -56.4778331777340     IErMin= 4 ErrMin= 1.28D-08
 ErrMax= 1.28D-08  0.00D+00 EMaxC= 1.00D-01 BMatC= 3.53D-15 BMatP= 4.44D-12
 IDIUse=1 WtCom= 1.00D+00 WtEn= 0.00D+00
 Coeff-Com: -0.177D-03 0.717D-01 0.104D+00 0.824D+00
 Coeff:     -0.177D-03 0.717D-01 0.104D+00 0.824D+00
 Gap=     0.242 Goal=   None    Shift=    0.000
 RMSDP=2.19D-09 MaxDP=1.81D-08 DE=-3.67D-12 OVMax= 3.14D-08

 SCF Done:  E(RB97D3) =  -56.4778331777     A.U. after   10 cycles
            NFock= 10  Conv=0.22D-08     -V/T= 2.0091
 KE= 5.596958867693D+01 PE=-1.555539489841D+02 EE= 3.121459601111D+01
 Leave Link  502 at Thu Feb 15 13:06:57 2018, MaxMem=   262144000 cpu:        11.0
 (Enter /home/chemsoft/gaussian/g09e01/g09/l508.exe)
 QCSCF skips out because SCF is already converged.
 Leave Link  508 at Thu Feb 15 13:06:57 2018, MaxMem=   262144000 cpu:         0.0
 (Enter /home/chemsoft/gaussian/g09e01/g09/l601.exe)
 Copying SCF densities to generalized density rwf, IOpCl= 0 IROHF=0.

 **********************************************************************

            Population analysis using the SCF density.

 **********************************************************************

 Orbital symmetries:
       Occupied  (A1) (A1) (E) (E) (A1)
       Virtual   (A1) (E) (E) (E) (E) (A1) (A1) (E) (E) (A1) (E)
                 (E) (A2) (A1) (E) (E) (E) (E) (A1) (E) (E) (A1)
                 (E) (E)
 The electronic state is 1-A1.
 Alpha  occ. eigenvalues --  -13.97699  -0.75928  -0.40165  -0.40165  -0.20332
 Alpha virt. eigenvalues --    0.03834   0.11963   0.11963   0.47924   0.47924
 Alpha virt. eigenvalues --    0.59939   0.70030   0.79573   0.79573   0.88074
 Alpha virt. eigenvalues --    1.14101   1.14101   1.54329   1.61644   1.74399
 Alpha virt. eigenvalues --    1.74399   2.02002   2.02002   2.37595   2.72198
 Alpha virt. eigenvalues --    2.72198   2.79828   3.23923   3.23923
     Molecular Orbital Coefficients:
                           1         2         3         4         5
                        (A1)--O   (A1)--O   (E)--O    (E)--O    (A1)--O
     Eigenvalues --   -13.97699  -0.75928  -0.40165  -0.40165  -0.20332
   1 1   N  1S          0.98828   0.25996  -0.00000   0.00000  -0.10065
   2        2S         -0.04487   0.51976  -0.00000   0.00000  -0.20658
   3        3S          0.01829   0.16257  -0.00000   0.00000  -0.32978
   4        4PX         0.00000   0.00000   0.00000   0.46695   0.00000
   5        4PY         0.00000   0.00000   0.46695   0.00000  -0.00000
   6        4PZ        -0.00380   0.11276   0.00000   0.00000   0.54496
   7        5PX         0.00000   0.00000   0.00000  -0.18551   0.00000
   8        5PY        -0.00000  -0.00000  -0.18551   0.00000  -0.00000
   9        5PZ        -0.00043  -0.00519   0.00000   0.00000  -0.43615
  10        6D 0        0.00143  -0.00197  -0.00000   0.00000   0.02120
  11        6D+1        0.00000   0.00000   0.00000   0.02106   0.00000
  12        6D-1       -0.00000   0.00000   0.02106   0.00000   0.00000
  13        6D+2        0.00000  -0.00000   0.00970   0.00000  -0.00000
  14        6D-2        0.00000   0.00000   0.00000   0.00970   0.00000
  15 2   H  1S          0.00353   0.19782  -0.38111   0.00000   0.08906
  16        2S         -0.00299   0.02442  -0.15032   0.00000   0.05795
  17        3PX         0.00000   0.00000   0.00000  -0.02233   0.00000
  18        3PY        -0.00339  -0.02707   0.01630   0.00000  -0.00930
  19        3PZ         0.00144   0.00385  -0.01101   0.00000  -0.02301
  20 3   H  1S          0.00353   0.19782   0.19055   0.33005   0.08906
  21        2S         -0.00299   0.02442   0.07516   0.13018   0.05795
  22        3PX         0.00294   0.02344   0.01672   0.00664   0.00805
  23        3PY         0.00170   0.01353  -0.01267   0.01672   0.00465
  24        3PZ         0.00144   0.00385   0.00551   0.00954  -0.02301
  25 4   H  1S          0.00353   0.19782   0.19055  -0.33005   0.08906
  26        2S         -0.00299   0.02442   0.07516  -0.13018   0.05795
  27        3PX        -0.00294  -0.02344  -0.01672   0.00664  -0.00805
  28        3PY         0.00170   0.01353  -0.01267  -0.01672   0.00465
  29        3PZ         0.00144   0.00385   0.00551  -0.00954  -0.02301
                           6         7         8         9        10
                        (A1)--V   (E)--V    (E)--V    (E)--V    (E)--V
     Eigenvalues --     0.03834   0.11963   0.11963   0.47924   0.47924
   1 1   N  1S          0.12971   0.00000  -0.00000   0.00000   0.00000
   2        2S          0.22424   0.00000  -0.00000   0.00000   0.00000
   3        3S          1.45645   0.00000   0.00000  -0.00000   0.00000
   4        4PX         0.00000  -0.39708   0.00000   0.00000  -0.15473
   5        4PY        -0.00000   0.00000   0.39708   0.15473   0.00000
   6        4PZ         0.19284   0.00000   0.00000   0.00000   0.00000
   7        5PX         0.00000   0.77863   0.00000   0.00000   0.53610
   8        5PY         0.00000   0.00000  -0.77863  -0.53610   0.00000
   9        5PZ        -0.33984   0.00000   0.00000   0.00000   0.00000
  10        6D 0        0.00442   0.00000   0.00000   0.00000   0.00000
  11        6D+1        0.00000  -0.00839   0.00000   0.00000   0.06602
  12        6D-1       -0.00000   0.00000   0.00839  -0.06602   0.00000
  13        6D+2        0.00000   0.00000  -0.00730  -0.09676   0.00000
  14        6D-2        0.00000   0.00730   0.00000   0.00000   0.09676
  15 2   H  1S         -0.09077   0.00000   0.13626   1.06475   0.00000
  16        2S         -0.76594   0.00000   1.56262  -0.80054   0.00000
  17        3PX         0.00000   0.00723   0.00000   0.00000   0.09870
  18        3PY        -0.00801   0.00000   0.00811   0.05760   0.00000
  19        3PZ         0.00202   0.00000  -0.00742  -0.05242   0.00000
  20 3   H  1S         -0.09077   0.11800  -0.06813  -0.53237   0.92210
  21        2S         -0.76594   1.35327  -0.78131   0.40027  -0.69329
  22        3PX         0.00694  -0.00427   0.00664   0.06768  -0.01853
  23        3PY         0.00401  -0.00664  -0.00339  -0.05962  -0.06768
  24        3PZ         0.00202  -0.00643   0.00371   0.02621  -0.04539
  25 4   H  1S         -0.09077  -0.11800  -0.06813  -0.53237  -0.92210
  26        2S         -0.76594  -1.35327  -0.78131   0.40027   0.69329
  27        3PX        -0.00694  -0.00427  -0.00664  -0.06768  -0.01853
  28        3PY         0.00401   0.00664  -0.00339  -0.05962   0.06768
  29        3PZ         0.00202   0.00643   0.00371   0.02621   0.04539
                          11        12        13        14        15
                        (A1)--V   (A1)--V   (E)--V    (E)--V    (A1)--V
     Eigenvalues --     0.59939   0.70030   0.79573   0.79573   0.88074
   1 1   N  1S         -0.17827  -0.15634   0.00000  -0.00000  -0.19047
   2        2S         -0.79885  -0.77900   0.00000  -0.00000  -1.54295
   3        3S          1.21916   0.67110   0.00000   0.00000   3.70378
   4        4PX         0.00000   0.00000   0.88380   0.00000   0.00000
   5        4PY        -0.00000  -0.00000   0.00000   0.88380  -0.00000
   6        4PZ        -0.37064   0.86497   0.00000  -0.00000  -0.22775
   7        5PX         0.00000   0.00000   1.75611   0.00000   0.00000
   8        5PY        -0.00000  -0.00000   0.00000   1.75611  -0.00000
   9        5PZ        -0.26359   0.99225   0.00000  -0.00000  -0.87198
  10        6D 0       -0.08313  -0.00036   0.00000  -0.00000   0.09402
  11        6D+1        0.00000   0.00000  -0.03566   0.00000   0.00000
  12        6D-1        0.00000   0.00000   0.00000  -0.03566  -0.00000
  13        6D+2        0.00000   0.00000   0.00000  -0.04147   0.00000
  14        6D-2        0.00000   0.00000  -0.04147   0.00000   0.00000
  15 2   H  1S          0.59884   0.17026   0.00000  -0.07995  -0.63478
  16        2S         -0.62461  -0.10259   0.00000  -1.26784  -0.58451
  17        3PX         0.00000   0.00000   0.00734   0.00000   0.00000
  18        3PY         0.17445  -0.01626   0.00000   0.21029   0.00578
  19        3PZ         0.00688   0.00803   0.00000  -0.09542  -0.15310
  20 3   H  1S          0.59884   0.17026   0.06924   0.03998  -0.63478
  21        2S         -0.62461  -0.10259   1.09798   0.63392  -0.58451
  22        3PX        -0.15108   0.01408   0.15955   0.08788  -0.00501
  23        3PY        -0.08723   0.00813   0.08788   0.05808  -0.00289
  24        3PZ         0.00688   0.00803   0.08264   0.04771  -0.15310
  25 4   H  1S          0.59884   0.17026  -0.06924   0.03998  -0.63478
  26        2S         -0.62461  -0.10259  -1.09798   0.63392  -0.58451
  27        3PX         0.15108  -0.01408   0.15955  -0.08788   0.00501
  28        3PY        -0.08723   0.00813  -0.08788   0.05808  -0.00289
  29        3PZ         0.00688   0.00803  -0.08264   0.04771  -0.15310
                          16        17        18        19        20
                        (E)--V    (E)--V    (A2)--V   (A1)--V   (E)--V
     Eigenvalues --     1.14101   1.14101   1.54329   1.61644   1.74399
   1 1   N  1S         -0.00000   0.00000   0.00000  -0.09159   0.00000
   2        2S         -0.00000   0.00000   0.00000  -0.85736   0.00000
   3        3S          0.00000   0.00000   0.00000   1.75207   0.00000
   4        4PX         0.00000   0.01760  -0.00000   0.00000   0.03385
   5        4PY        -0.01760   0.00000   0.00000   0.00000   0.00000
   6        4PZ        -0.00000   0.00000   0.00000  -0.07790   0.00000
   7        5PX         0.00000  -0.34461  -0.00000   0.00000   0.97838
   8        5PY         0.34461   0.00000   0.00000  -0.00000   0.00000
   9        5PZ        -0.00000   0.00000   0.00000  -1.01218   0.00000
  10        6D 0       -0.00000   0.00000   0.00000  -0.29720   0.00000
  11        6D+1        0.00000  -0.20193   0.00000   0.00000   0.09596
  12        6D-1        0.20193   0.00000   0.00000  -0.00000   0.00000
  13        6D+2       -0.15337   0.00000   0.00000  -0.00000   0.00000
  14        6D-2        0.00000   0.15337   0.00000   0.00000  -0.06483
  15 2   H  1S         -0.16639   0.00000   0.00000  -0.50276   0.00000
  16        2S         -0.06323   0.00000   0.00000  -0.19059   0.00000
  17        3PX         0.00000   0.47379   0.61216   0.00000  -0.65395
  18        3PY         0.20720   0.00000   0.00000   0.04981   0.00000
  19        3PZ         0.46681   0.00000   0.00000   0.53682   0.00000
  20 3   H  1S          0.08319  -0.14410  -0.00000  -0.50276   0.36697
  21        2S          0.03161  -0.05476  -0.00000  -0.19059   0.16382
  22        3PX         0.29488  -0.03695  -0.30608  -0.04313  -0.40262
  23        3PY        -0.30355  -0.29488   0.53015  -0.02490   0.14511
  24        3PZ        -0.23340   0.40427  -0.00000   0.53682   0.50744
  25 4   H  1S          0.08319   0.14410   0.00000  -0.50276  -0.36697
  26        2S          0.03161   0.05476   0.00000  -0.19059  -0.16382
  27        3PX        -0.29488  -0.03695  -0.30608   0.04313  -0.40262
  28        3PY        -0.30355   0.29488  -0.53015  -0.02490  -0.14511
  29        3PZ        -0.23340  -0.40427   0.00000   0.53682  -0.50744
                          21        22        23        24        25
                        (E)--V    (E)--V    (E)--V    (A1)--V   (E)--V
     Eigenvalues --     1.74399   2.02002   2.02002   2.37595   2.72198
   1 1   N  1S          0.00000   0.00000   0.00000   0.16213   0.00000
   2        2S          0.00000   0.00000   0.00000   0.74880   0.00000
   3        3S          0.00000   0.00000   0.00000   1.51545   0.00000
   4        4PX         0.00000   0.70686   0.00000   0.00000  -0.00447
   5        4PY         0.03385   0.00000  -0.70686   0.00000   0.00000
   6        4PZ         0.00000   0.00000   0.00000   0.45796   0.00000
   7        5PX         0.00000  -0.07974   0.00000   0.00000  -0.41030
   8        5PY         0.97838   0.00000   0.07974  -0.00000   0.00000
   9        5PZ        -0.00000   0.00000  -0.00000  -0.79940   0.00000
  10        6D 0       -0.00000   0.00000  -0.00000   0.45673   0.00000
  11        6D+1        0.00000  -0.21578   0.00000   0.00000   0.79612
  12        6D-1        0.09596   0.00000   0.21578  -0.00000   0.00000
  13        6D+2       -0.06483   0.00000   0.21874   0.00000   0.00000
  14        6D-2        0.00000  -0.21874   0.00000   0.00000  -0.76032
  15 2   H  1S         -0.42374   0.00000  -0.09853  -0.62769   0.00000
  16        2S         -0.18916   0.00000  -0.38365  -0.28701   0.00000
  17        3PX         0.00000   0.09708   0.00000   0.00000   0.55969
  18        3PY        -0.31884   0.00000   0.77916   0.76923   0.00000
  19        3PZ        -0.58594   0.00000  -0.42679   0.13938   0.00000
  20 3   H  1S          0.21187  -0.08533   0.04927  -0.62769  -0.12173
  21        2S          0.09458  -0.33225   0.19183  -0.28701  -0.09848
  22        3PX         0.14511  -0.56010   0.37943  -0.66617   0.04842
  23        3PY        -0.57017  -0.37943   0.12198  -0.38462  -0.29518
  24        3PZ         0.29297  -0.36961   0.21340   0.13938   0.24146
  25 4   H  1S          0.21187   0.08533   0.04927  -0.62769   0.12173
  26        2S          0.09458   0.33225   0.19183  -0.28701   0.09848
  27        3PX        -0.14511  -0.56010  -0.37943   0.66617   0.04842
  28        3PY        -0.57017   0.37943   0.12198  -0.38462   0.29518
  29        3PZ         0.29297   0.36961   0.21340   0.13938  -0.24146
                          26        27        28        29
                        (E)--V    (A1)--V   (E)--V    (E)--V
     Eigenvalues --     2.72198   2.79828   3.23923   3.23923
   1 1   N  1S          0.00000   0.16207   0.00000   0.00000
   2        2S          0.00000   0.78221   0.00000   0.00000
   3        3S          0.00000   1.40061   0.00000   0.00000
   4        4PX         0.00000   0.00000  -0.71852   0.00000
   5        4PY        -0.00447  -0.00000   0.00000   0.71852
   6        4PZ         0.00000   0.40087   0.00000   0.00000
   7        5PX         0.00000   0.00000   1.01394   0.00000
   8        5PY        -0.41030  -0.00000   0.00000  -1.01394
   9        5PZ        -0.00000  -0.23734   0.00000  -0.00000
  10        6D 0        0.00000  -0.99814   0.00000  -0.00000
  11        6D+1        0.00000   0.00000  -0.91335   0.00000
  12        6D-1        0.79612  -0.00000   0.00000   0.91335
  13        6D+2       -0.76032  -0.00000   0.00000   1.01922
  14        6D-2        0.00000   0.00000  -1.01922   0.00000
  15 2   H  1S          0.14056  -0.66160   0.00000   1.18947
  16        2S          0.11372  -0.22784   0.00000   0.42275
  17        3PX         0.00000   0.00000  -0.02860   0.00000
  18        3PY        -0.12200   0.51486   0.00000  -0.95039
  19        3PZ        -0.27882  -0.47146   0.00000   0.39893
  20 3   H  1S         -0.07028  -0.66160   1.03011  -0.59473
  21        2S         -0.05686  -0.22784   0.36611  -0.21137
  22        3PX        -0.29518  -0.44588   0.70564  -0.42391
  23        3PY         0.38927  -0.25743   0.42391  -0.21615
  24        3PZ         0.13941  -0.47146   0.34548  -0.19946
  25 4   H  1S         -0.07028  -0.66160  -1.03011  -0.59473
  26        2S         -0.05686  -0.22784  -0.36611  -0.21137
  27        3PX         0.29518   0.44588   0.70564   0.42391
  28        3PY         0.38927  -0.25743  -0.42391  -0.21615
  29        3PZ         0.13941  -0.47146  -0.34548  -0.19946
          Condensed to atoms (all electrons):
               1          2          3          4
     1  N    6.157103   0.356662   0.356662   0.356662
     2  H    0.356662   0.626548  -0.029453  -0.029453
     3  H    0.356662  -0.029453   0.626548  -0.029453
     4  H    0.356662  -0.029453  -0.029453   0.626548
 Mulliken charges:
               1
     1  N   -0.227087
     2  H    0.075696
     3  H    0.075696
     4  H    0.075696
 Sum of Mulliken charges =   0.00000
 Mulliken charges with hydrogens summed into heavy atoms:
               1
     1  N    0.000000
 Electronic spatial extent (au):  <R**2>=             26.1345
 Charge=             -0.0000 electrons
 Dipole moment (field-independent basis, Debye):
    X=             -0.0000    Y=             -0.0000    Z=             -1.6940  Tot=              1.6940
 Quadrupole moment (field-independent basis, Debye-Ang):
   XX=             -6.1834   YY=             -6.1834   ZZ=             -8.5358
   XY=              0.0000   XZ=              0.0000   YZ=              0.0000
 Traceless Quadrupole moment (field-independent basis, Debye-Ang):
   XX=              0.7841   YY=              0.7841   ZZ=             -1.5683
   XY=              0.0000   XZ=              0.0000   YZ=              0.0000
 Octapole moment (field-independent basis, Debye-Ang**2):
  XXX=             -0.0000  YYY=              0.6411  ZZZ=             -1.3918  XYY=              0.0000
  XXY=             -0.6411  XXZ=             -0.6849  XZZ=              0.0000  YZZ=              0.0000
  YYZ=             -0.6849  XYZ=              0.0000
 Hexadecapole moment (field-independent basis, Debye-Ang**3):
 XXXX=             -9.8108 YYYY=             -9.8108 ZZZZ=             -9.2071 XXXY=              0.0000
 XXXZ=              0.0000 YYYX=              0.0000 YYYZ=             -0.2764 ZZZX=             -0.0000
 ZZZY=             -0.0000 XXYY=             -3.2703 XXZZ=             -3.2069 YYZZ=             -3.2069
 XXYZ=              0.2764 YYXZ=             -0.0000 ZZXY=              0.0000
 N-N= 1.189193111831D+01 E-N=-1.555539489849D+02  KE= 5.596958867693D+01
 Symmetry A'   KE= 5.335960948535D+01
 Symmetry A"   KE= 2.609979191586D+00
 Orbital energies and kinetic energies (alpha):
                                 1                 2
   1         (A1)--O         -13.976989         21.756304
   2         (A1)--O          -0.759282          1.952522
   3         (E)--O           -0.401646          1.304990
   4         (E)--O           -0.401646          1.304990
   5         (A1)--O          -0.203316          1.665990
   6         (A1)--V           0.038336          0.854837
   7         (E)--V            0.119629          0.939252
   8         (E)--V            0.119629          0.939252
   9         (E)--V            0.479238          1.532298
  10         (E)--V            0.479238          1.532298
  11         (A1)--V           0.599393          2.531016
  12         (A1)--V           0.700305          2.926835
  13         (E)--V            0.795734          2.591124
  14         (E)--V            0.795734          2.591124
  15         (A1)--V           0.880739          2.320245
  16         (E)--V            1.141006          2.002979
  17         (E)--V            1.141006          2.002979
  18         (A2)--V           1.543292          2.295531
  19         (A1)--V           1.616439          2.630134
  20         (E)--V            1.743987          2.487476
  21         (E)--V            1.743987          2.487476
  22         (E)--V            2.020015          3.590729
  23         (E)--V            2.020015          3.590729
  24         (A1)--V           2.375945          4.223105
  25         (E)--V            2.721976          4.093878
  26         (E)--V            2.721976          4.093878
  27         (A1)--V           2.798280          4.752394
  28         (E)--V            3.239233          5.232181
  29         (E)--V            3.239233          5.232181
 Total kinetic energy from orbitals= 5.596958867693D+01
 No NMR shielding tensors so no spin-rotation constants.
 Leave Link  601 at Thu Feb 15 13:06:57 2018, MaxMem=   262144000 cpu:         0.4
 (Enter /home/chemsoft/gaussian/g09e01/g09/l701.exe)
 Compute integral first derivatives.
 ... and contract with generalized density number  0.
 R6Disp: Adding Grimme-D3(BJ) dispersion energy 1st derivatives to the gradient.
   6 Symmetry operations used in ECPInt.
 ECPInt:  NShTT=     120 NPrTT=     400 LenC2=     121 LenP2D=     397.
 LDataN:  DoStor=T MaxTD1= 5 Len=  102
 Leave Link  701 at Thu Feb 15 13:06:57 2018, MaxMem=   262144000 cpu:         0.5
 (Enter /home/chemsoft/gaussian/g09e01/g09/l702.exe)
 L702 exits ... SP integral derivatives will be done elsewhere.
 Leave Link  702 at Thu Feb 15 13:06:58 2018, MaxMem=   262144000 cpu:         0.1
 (Enter /home/chemsoft/gaussian/g09e01/g09/l703.exe)
 Compute integral first derivatives, UseDBF=T ICtDFT=           0.
 Integral derivatives from FoFJK, PRISM(SPDF).
 Calling FoFJK, ICntrl=      2527 FMM=F ISym2X=1 I1Cent= 4 IOpClX= 0 NMat=1 NMatS=1 NMatT=0.
 FoFJK:  IHMeth= 1 ICntrl=    2527 DoSepK=F KAlg= 0 I1Cent=   4 FoldK=F
 IRaf=         0 NMat=   1 IRICut=       1 DoRegI=T DoRafI=F ISym2E= 1.
 FoFCou: FMM=F IPFlag=           0 FMFlag=      100000 FMFlg1=         800
         NFxFlg=           0 DoJE=F BraDBF=F KetDBF=T FulRan=T
         wScrn=  0.000000 ICntrl=    2527 IOpCl=  0 I1Cent=           4 NGrid=           0
         NMat0=    1 NMatS0=      1 NMatT0=    0 NMatD0=    1 NMtDS0=    0 NMtDT0=    0
 Petite list used in FoFCou.
 Leave Link  703 at Thu Feb 15 13:06:58 2018, MaxMem=   262144000 cpu:         1.3
 (Enter /home/chemsoft/gaussian/g09e01/g09/l716.exe)
 Dipole        =-4.44089210D-16-2.22044605D-16-6.66456358D-01
 ***** Axes restored to original set *****
 -------------------------------------------------------------------
 Center     Atomic                   Forces (Hartrees/Bohr)
 Number     Number              X              Y              Z
 -------------------------------------------------------------------
      1        7           0.000000000    0.000000000   -0.009706055
      2        1          -0.004597116   -0.000000000    0.003235352
      3        1           0.002298558    0.003981219    0.003235352
      4        1           0.002298558   -0.003981219    0.003235352
 -------------------------------------------------------------------
 Cartesian Forces:  Max     0.009706055 RMS     0.003968737
 Leave Link  716 at Thu Feb 15 13:06:58 2018, MaxMem=   262144000 cpu:         0.1
 (Enter /home/chemsoft/gaussian/g09e01/g09/l103.exe)

 GradGradGradGradGradGradGradGradGradGradGradGradGradGradGradGradGradGrad
 Berny optimization.
 FormGI is forming the generalized inverse of G from B-inverse, IUseBI=4.
 Internal  Forces:  Max     0.005495407 RMS     0.003721224
 Search for a local minimum.
 Step number   1 out of a maximum of  100
 All quantities printed in internal units (Hartrees-Bohrs-Radians)
 RMS Force = .37212D-02 SwitMx=.10000D-02 MixMth= 1
 Mixed Optimization -- RFO/linear search
 Second derivative matrix not updated -- first step.
 The second derivative matrix:
                          R1        R2        R3        A1        A2
           R1           0.44664
           R2           0.00000   0.44664
           R3           0.00000   0.00000   0.44664
           A1           0.00000   0.00000   0.00000   0.16000
           A2           0.00000   0.00000   0.00000   0.00000   0.16000
           A3           0.00000   0.00000   0.00000   0.00000   0.00000
           D1           0.00000   0.00000   0.00000   0.00000   0.00000
                          A3        D1
           A3           0.16000
           D1           0.00000   0.00791
 ITU=  0
     Eigenvalues ---    0.06638   0.16000   0.16000   0.44664   0.44664
     Eigenvalues ---    0.44664
 RFO step:  Lambda=-2.75415861D-04 EMin= 6.63808657D-02
 Linear search not attempted -- first point.
 Iteration  1 RMS(Cart)=  0.00804528 RMS(Int)=  0.00016233
 Iteration  2 RMS(Cart)=  0.00011243 RMS(Int)=  0.00010344
 Iteration  3 RMS(Cart)=  0.00000002 RMS(Int)=  0.00010344
 ITry= 1 IFail=0 DXMaxC= 1.78D-02 DCOld= 1.00D+10 DXMaxT= 3.00D-01 DXLimC= 3.00D+00 Rises=F
 ClnCor:  largest displacement from symmetrization is 3.77D-04 for atom     4.
 Variable       Old X    -DE/DX   Delta X   Delta X   Delta X     New X
                                 (Linear)    (Quad)   (Total)
    R1        1.92367   0.00550   0.00000   0.01230   0.01240   1.93607
    R2        1.92367   0.00550   0.00000   0.01230   0.01240   1.93607
    R3        1.92367   0.00550   0.00000   0.01230   0.01240   1.93607
    A1        1.84561  -0.00032   0.00000  -0.01137  -0.01198   1.83363
    A2        1.84561  -0.00140   0.00000  -0.01220  -0.01198   1.83363
    A3        1.84561  -0.00140   0.00000  -0.01220  -0.01198   1.83363
    D1       -1.95243   0.00153   0.00000   0.02290   0.02298  -1.92945
         Item               Value     Threshold  Converged?
 Maximum Force            0.005495     0.000450     NO 
 RMS     Force            0.003721     0.000300     NO 
 Maximum Displacement     0.017800     0.001800     NO 
 RMS     Displacement     0.008053     0.001200     NO 
 Predicted change in Energy=-1.372829D-04
 Lowest energy point so far.  Saving SCF results.
 GradGradGradGradGradGradGradGradGradGradGradGradGradGradGradGradGradGrad

 Leave Link  103 at Thu Feb 15 13:06:58 2018, MaxMem=   262144000 cpu:         0.1
 (Enter /home/chemsoft/gaussian/g09e01/g09/l202.exe)
                          Input orientation:                          
 ---------------------------------------------------------------------
 Center     Atomic      Atomic             Coordinates (Angstroms)
 Number     Number       Type             X           Y           Z
 ---------------------------------------------------------------------
      1          7           0       -0.000000   -0.000000   -0.079991
      2          1           0       -0.938923   -0.000000    0.329975
      3          1           0        0.469461    0.813131    0.329975
      4          1           0        0.469461   -0.813131    0.329975
 ---------------------------------------------------------------------
                    Distance matrix (angstroms):
                    1          2          3          4
     1  N    0.000000
     2  H    1.024523   0.000000
     3  H    1.024523   1.626262   0.000000
     4  H    1.024523   1.626262   1.626262   0.000000
 Stoichiometry    H3N
 Framework group  C3V[C3(N),3SGV(H)]
 Deg. of freedom     2
 Full point group                 C3V     NOp   6
 RotChk:  IX=0 Diff= 2.36D-16
 Largest Abelian subgroup         CS      NOp   2
 Largest concise Abelian subgroup CS      NOp   2
                         Standard orientation:                         
 ---------------------------------------------------------------------
 Center     Atomic      Atomic             Coordinates (Angstroms)
 Number     Number       Type             X           Y           Z
 ---------------------------------------------------------------------
      1          7           0        0.000000    0.000000    0.122990
      2          1           0        0.000000    0.938923   -0.286976
      3          1           0       -0.813131   -0.469461   -0.286976
      4          1           0        0.813131   -0.469461   -0.286976
 ---------------------------------------------------------------------
 Rotational constants (GHZ):    288.6828830    288.6828830    189.6054749
 Leave Link  202 at Thu Feb 15 13:06:59 2018, MaxMem=   262144000 cpu:         0.0
 (Enter /home/chemsoft/gaussian/g09e01/g09/l301.exe)
 Standard basis: def2SVP (5D, 7F)
 Ernie: Thresh=  0.10000D-02 Tol=  0.10000D-05 Strict=F.
 There are    20 symmetry adapted cartesian basis functions of A'  symmetry.
 There are    10 symmetry adapted cartesian basis functions of A"  symmetry.
 There are    19 symmetry adapted basis functions of A'  symmetry.
 There are    10 symmetry adapted basis functions of A"  symmetry.
    29 basis functions,    46 primitive gaussians,    30 cartesian basis functions
     5 alpha electrons        5 beta electrons
       nuclear repulsion energy        11.8229063334 Hartrees.
 IExCor= 3630 DFT=T Ex+Corr=B97D3 ExCW=0 ScaHFX=  0.000000
 ScaDFX=  1.000000  1.000000  1.000000  1.000000 ScalE2=  1.000000  1.000000
 IRadAn=      5 IRanWt=     -1 IRanGd=            0 ICorTp=0 IEmpDi=141
 NAtoms=    4 NActive=    4 NUniq=    2 SFac= 4.00D+00 NAtFMM=   60 NAOKFM=F Big=F
 Integral buffers will be    131072 words long.
 Raffenetti 2 integral format.
 Two-electron integral symmetry is turned on.
 R6Disp:  Grimme-D3(BJ) Dispersion energy=       -0.0026844599 Hartrees.
 Nuclear repulsion after empirical dispersion term =       11.8202218735 Hartrees.
 Standard density basis: W06 (5D, 7F)
    82 Density fitting functions
 There are    82 symmetry adapted density basis functions of A   symmetry.
 Leave Link  301 at Thu Feb 15 13:06:59 2018, MaxMem=   262144000 cpu:         0.4
 (Enter /home/chemsoft/gaussian/g09e01/g09/l302.exe)
 NPDir=0 NMtPBC=     1 NCelOv=     1 NCel=       1 NClECP=     1 NCelD=      1
         NCelK=      1 NCelE2=     1 NClLst=     1 CellRange=     0.0.
 One-electron integrals computed using PRISM.
 One-electron integral symmetry used in STVInt
   6 Symmetry operations used in ECPInt.
 ECPInt:  NShTT=     120 NPrTT=     400 LenC2=     121 LenP2D=     397.
 LDataN:  DoStor=T MaxTD1= 4 Len=   56
 NBasis=    29 RedAO= T EigKep=  3.57D-02  NBF=    19    10
 NBsUse=    29 1.00D-06 EigRej= -1.00D+00 NBFU=    19    10
 NBasis=       29 NBas6D=       30 NTT=         435   NTT6D=      465
 NDBShl=       30 NDBF=         82 NDBF6D=       97  NNucDB=        0
 IDenFi=        2 ISolve=        0 FullAP=F BlkAPC=T NucTyp=        0
 TolInv= 1.00D-06 TolIt=  1.00D-10 IR12=0.
 FoFCou: FMM=F IPFlag=           0 FMFlag=           0 FMFlg1=           0
         NFxFlg=           0 DoJE=F BraDBF=T KetDBF=T FulRan=T
         wScrn=  0.000000 ICntrl=     600 IOpCl=  3 I1Cent=           6 NGrid=           0
         NMat0=    1 NMatS0=     97 NMatT0=    0 NMatD0=    1 NMtDS0=    0 NMtDT0=    0
 Petite list used in FoFCou.
 DBF EigKep=  2.26D-04 EigRej= -1.00D+00
 NDBF=     82  NBFD=    82
 NRank=    82 NBFDU=    82
 S*AI*S=  4.69234454471    
 Precomputing XC quadrature grid using
 IXCGrd= 4 IRadAn=           5 IRanWt=          -1 IRanGd=           0 AccXCQ= 0.00D+00.
 Generated NRdTot=       0 NPtTot=           0 NUsed=           0 NTot=          32
 NSgBfM=    30    30    30    30    30 MxSgAt=     4 MxSgA2=     4.
 Leave Link  302 at Thu Feb 15 13:06:59 2018, MaxMem=   262144000 cpu:         0.8
 (Enter /home/chemsoft/gaussian/g09e01/g09/l303.exe)
 DipDrv:  MaxL=1.
 Leave Link  303 at Thu Feb 15 13:06:59 2018, MaxMem=   262144000 cpu:         0.1
 (Enter /home/chemsoft/gaussian/g09e01/g09/l401.exe)
 Initial guess from the checkpoint file:  "ammonia.df-b97d3svp.chk"
 B after Tr=     0.000000   -0.000000    0.000000
         Rot=    1.000000    0.000000   -0.000000    0.000000 Ang=   0.00 deg.
 Guess basis will be translated and rotated to current coordinates.
 Recovered     1 saved fitting vectors from chk file.
 JPrj=2 DoOrth=T DoCkMO=T.
 Initial guess orbital symmetries:
       Occupied  (A1) (A1) (E) (E) (A1)
       Virtual   (?A) (?A) (?A) (?A) (?A) (?A) (?A) (?A) (?A) (?A)
                 (?A) (?A) (?A) (?A) (?A) (?A) (?A) (?A) (?A) (?A)
                 (?A) (?A) (?A) (?A)
 The electronic state of the initial guess is 1-A1.
 Leave Link  401 at Thu Feb 15 13:07:00 2018, MaxMem=   262144000 cpu:         0.5
 (Enter /home/chemsoft/gaussian/g09e01/g09/l502.exe)
 Closed shell SCF:
 Density fitting will be used, IDenFit= 2 NucTyp=  0.
 Using DIIS extrapolation, IDIIS=  1040.
 Integral symmetry usage will be decided dynamically.
 IVT=      257426 IEndB=      257426 NGot=   262144000 MDV=   262138505
 LenX=   262138505 LenY=   262137164
 Requested convergence on RMS density matrix=1.00D-08 within 500 cycles.
 Requested convergence on MAX density matrix=1.00D-06.
 Requested convergence on             energy=1.00D-06.
 No special actions if energy rises.
 Fock matrices will be formed incrementally for  20 cycles.

 Cycle   1  Pass 1  IDiag  1:
 FoFCou: FMM=F IPFlag=           0 FMFlag=      100000 FMFlg1=           0
         NFxFlg=           0 DoJE=T BraDBF=T KetDBF=F FulRan=T
         wScrn=  0.000000 ICntrl=     500 IOpCl=  0 I1Cent=           5 NGrid=           0
         NMat0=    1 NMatS0=      1 NMatT0=    0 NMatD0=    1 NMtDS0=    0 NMtDT0=    0
 Petite list used in FoFCou.
 FoFJK:  IHMeth= 1 ICntrl=     500 DoSepK=F KAlg= 0 I1Cent=   4 FoldK=F
 IRaf= 990000000 NMat=   1 IRICut=       1 DoRegI=T DoRafI=F ISym2E= 1.
 E= -56.4779494004421    
 DIIS: error= 1.03D-03 at cycle   1 NSaved=   1.
 NSaved= 1 IEnMin= 1 EnMin= -56.4779494004421     IErMin= 1 ErrMin= 1.03D-03
 ErrMax= 1.03D-03  0.00D+00 EMaxC= 1.00D-01 BMatC= 4.46D-05 BMatP= 4.46D-05
 IDIUse=3 WtCom= 9.90D-01 WtEn= 1.03D-02
 Coeff-Com:  0.100D+01
 Coeff-En:   0.100D+01
 Coeff:      0.100D+01
 Gap=     0.598 Goal=   None    Shift=    0.000
 GapD=    0.598 DampG=2.000 DampE=1.000 DampFc=2.0000 IDamp=-1.
 RMSDP=6.75D-04 MaxDP=7.53D-03              OVMax= 6.39D-03

 Cycle   2  Pass 1  IDiag  1:
 RMSU=  6.72D-04    CP:  1.00D+00
 E= -56.4780004021252     Delta-E=       -0.000051001683 Rises=F Damp=F
 DIIS: error= 7.50D-04 at cycle   2 NSaved=   2.
 NSaved= 2 IEnMin= 2 EnMin= -56.4780004021252     IErMin= 2 ErrMin= 7.50D-04
 ErrMax= 7.50D-04  0.00D+00 EMaxC= 1.00D-01 BMatC= 1.35D-05 BMatP= 4.46D-05
 IDIUse=3 WtCom= 9.93D-01 WtEn= 7.50D-03
 Coeff-Com:  0.282D+00 0.718D+00
 Coeff-En:   0.000D+00 0.100D+01
 Coeff:      0.280D+00 0.720D+00
 Gap=     0.242 Goal=   None    Shift=    0.000
 RMSDP=1.98D-04 MaxDP=1.82D-03 DE=-5.10D-05 OVMax= 1.97D-03

 Cycle   3  Pass 1  IDiag  1:
 RMSU=  1.53D-04    CP:  1.00D+00  8.13D-01
 E= -56.4780034074747     Delta-E=       -0.000003005349 Rises=F Damp=F
 DIIS: error= 7.15D-04 at cycle   3 NSaved=   3.
 NSaved= 3 IEnMin= 3 EnMin= -56.4780034074747     IErMin= 3 ErrMin= 7.15D-04
 ErrMax= 7.15D-04  0.00D+00 EMaxC= 1.00D-01 BMatC= 1.06D-05 BMatP= 1.35D-05
 IDIUse=3 WtCom= 9.93D-01 WtEn= 7.15D-03
 Coeff-Com:  0.201D-01 0.464D+00 0.516D+00
 Coeff-En:   0.000D+00 0.441D+00 0.559D+00
 Coeff:      0.200D-01 0.463D+00 0.517D+00
 Gap=     0.242 Goal=   None    Shift=    0.000
 RMSDP=9.04D-05 MaxDP=8.37D-04 DE=-3.01D-06 OVMax= 9.42D-04

 Cycle   4  Pass 1  IDiag  1:
 RMSU=  1.62D-05    CP:  1.00D+00  8.78D-01  4.94D-01
 E= -56.4780125548490     Delta-E=       -0.000009147374 Rises=F Damp=F
 DIIS: error= 5.80D-05 at cycle   4 NSaved=   4.
 NSaved= 4 IEnMin= 4 EnMin= -56.4780125548490     IErMin= 4 ErrMin= 5.80D-05
 ErrMax= 5.80D-05  0.00D+00 EMaxC= 1.00D-01 BMatC= 8.33D-08 BMatP= 1.06D-05
 IDIUse=1 WtCom= 1.00D+00 WtEn= 0.00D+00
 Coeff-Com:  0.325D-03 0.137D+00 0.179D+00 0.683D+00
 Coeff:      0.325D-03 0.137D+00 0.179D+00 0.683D+00
 Gap=     0.242 Goal=   None    Shift=    0.000
 RMSDP=7.58D-06 MaxDP=4.95D-05 DE=-9.15D-06 OVMax= 8.12D-05

 Cycle   5  Pass 1  IDiag  1:
 RMSU=  1.60D-06    CP:  1.00D+00  8.83D-01  5.22D-01  6.93D-01
 E= -56.4780126249830     Delta-E=       -0.000000070134 Rises=F Damp=F
 DIIS: error= 2.47D-06 at cycle   5 NSaved=   5.
 NSaved= 5 IEnMin= 5 EnMin= -56.4780126249830     IErMin= 5 ErrMin= 2.47D-06
 ErrMax= 2.47D-06  0.00D+00 EMaxC= 1.00D-01 BMatC= 1.21D-10 BMatP= 8.33D-08
 IDIUse=1 WtCom= 1.00D+00 WtEn= 0.00D+00
 Coeff-Com: -0.108D-03 0.654D-02 0.584D-02 0.402D-01 0.948D+00
 Coeff:     -0.108D-03 0.654D-02 0.584D-02 0.402D-01 0.948D+00
 Gap=     0.242 Goal=   None    Shift=    0.000
 RMSDP=3.59D-07 MaxDP=2.83D-06 DE=-7.01D-08 OVMax= 3.54D-06

 Cycle   6  Pass 1  IDiag  1:
 RMSU=  9.58D-08    CP:  1.00D+00  8.84D-01  5.20D-01  6.95D-01  9.48D-01
 E= -56.4780126250979     Delta-E=       -0.000000000115 Rises=F Damp=F
 DIIS: error= 3.04D-08 at cycle   6 NSaved=   6.
 NSaved= 6 IEnMin= 6 EnMin= -56.4780126250979     IErMin= 6 ErrMin= 3.04D-08
 ErrMax= 3.04D-08  0.00D+00 EMaxC= 1.00D-01 BMatC= 3.71D-14 BMatP= 1.21D-10
 IDIUse=1 WtCom= 1.00D+00 WtEn= 0.00D+00
 Coeff-Com: -0.558D-05 0.917D-04-0.753D-04 0.111D-02 0.713D-01 0.928D+00
 Coeff:     -0.558D-05 0.917D-04-0.753D-04 0.111D-02 0.713D-01 0.928D+00
 Gap=     0.242 Goal=   None    Shift=    0.000
 RMSDP=1.10D-08 MaxDP=9.91D-08 DE=-1.15D-10 OVMax= 1.09D-07

 Cycle   7  Pass 1  IDiag  1:
 RMSU=  5.43D-09    CP:  1.00D+00  8.84D-01  5.20D-01  6.95D-01  9.53D-01
                    CP:  9.55D-01
 E= -56.4780126250978     Delta-E=        0.000000000000 Rises=F Damp=F
 DIIS: error= 3.99D-09 at cycle   7 NSaved=   7.
 NSaved= 7 IEnMin= 6 EnMin= -56.4780126250979     IErMin= 7 ErrMin= 3.99D-09
 ErrMax= 3.99D-09  0.00D+00 EMaxC= 1.00D-01 BMatC= 3.40D-16 BMatP= 3.71D-14
 IDIUse=1 WtCom= 1.00D+00 WtEn= 0.00D+00
 Coeff-Com:  0.125D-06-0.338D-04-0.342D-04-0.177D-03-0.161D-02 0.312D-01
 Coeff-Com:  0.971D+00
 Coeff:      0.125D-06-0.338D-04-0.342D-04-0.177D-03-0.161D-02 0.312D-01
 Coeff:      0.971D+00
 Gap=     0.242 Goal=   None    Shift=    0.000
 RMSDP=6.83D-10 MaxDP=5.29D-09 DE= 1.71D-13 OVMax= 1.07D-08

 SCF Done:  E(RB97D3) =  -56.4780126251     A.U. after    7 cycles
            NFock=  7  Conv=0.68D-09     -V/T= 2.0095
 KE= 5.594853050685D+01 PE=-1.553968788869D+02 EE= 3.115011388146D+01
 Leave Link  502 at Thu Feb 15 13:07:04 2018, MaxMem=   262144000 cpu:         8.7
 (Enter /home/chemsoft/gaussian/g09e01/g09/l508.exe)
 QCSCF skips out because SCF is already converged.
 Leave Link  508 at Thu Feb 15 13:07:04 2018, MaxMem=   262144000 cpu:         0.0
 (Enter /home/chemsoft/gaussian/g09e01/g09/l701.exe)
 Compute integral first derivatives.
 ... and contract with generalized density number  0.
 R6Disp: Adding Grimme-D3(BJ) dispersion energy 1st derivatives to the gradient.
   6 Symmetry operations used in ECPInt.
 ECPInt:  NShTT=     120 NPrTT=     400 LenC2=     121 LenP2D=     397.
 LDataN:  DoStor=T MaxTD1= 5 Len=  102
 Leave Link  701 at Thu Feb 15 13:07:04 2018, MaxMem=   262144000 cpu:         0.5
 (Enter /home/chemsoft/gaussian/g09e01/g09/l702.exe)
 L702 exits ... SP integral derivatives will be done elsewhere.
 Leave Link  702 at Thu Feb 15 13:07:04 2018, MaxMem=   262144000 cpu:         0.1
 (Enter /home/chemsoft/gaussian/g09e01/g09/l703.exe)
 Compute integral first derivatives, UseDBF=T ICtDFT=           0.
 Integral derivatives from FoFJK, PRISM(SPDF).
 Calling FoFJK, ICntrl=      2527 FMM=F ISym2X=1 I1Cent= 4 IOpClX= 0 NMat=1 NMatS=1 NMatT=0.
 FoFJK:  IHMeth= 1 ICntrl=    2527 DoSepK=F KAlg= 0 I1Cent=   4 FoldK=F
 IRaf=         0 NMat=   1 IRICut=       1 DoRegI=T DoRafI=F ISym2E= 1.
 FoFCou: FMM=F IPFlag=           0 FMFlag=      100000 FMFlg1=         800
         NFxFlg=           0 DoJE=F BraDBF=F KetDBF=T FulRan=T
         wScrn=  0.000000 ICntrl=    2527 IOpCl=  0 I1Cent=           4 NGrid=           0
         NMat0=    1 NMatS0=      1 NMatT0=    0 NMatD0=    1 NMtDS0=    0 NMtDT0=    0
 Petite list used in FoFCou.
 Leave Link  703 at Thu Feb 15 13:07:05 2018, MaxMem=   262144000 cpu:         1.4
 (Enter /home/chemsoft/gaussian/g09e01/g09/l716.exe)
 Dipole        = 0.00000000D+00-4.44089210D-16-6.77080413D-01
 ***** Axes restored to original set *****
 -------------------------------------------------------------------
 Center     Atomic                   Forces (Hartrees/Bohr)
 Number     Number              X              Y              Z
 -------------------------------------------------------------------
      1        7          -0.000000000    0.000000000   -0.003337832
      2        1          -0.000400737   -0.000000000    0.001112611
      3        1           0.000200368    0.000347048    0.001112611
      4        1           0.000200368   -0.000347048    0.001112611
 -------------------------------------------------------------------
 Cartesian Forces:  Max     0.003337832 RMS     0.001130509
 Leave Link  716 at Thu Feb 15 13:07:05 2018, MaxMem=   262144000 cpu:         0.1
 (Enter /home/chemsoft/gaussian/g09e01/g09/l103.exe)

 GradGradGradGradGradGradGradGradGradGradGradGradGradGradGradGradGradGrad
 Berny optimization.
 Using GEDIIS/GDIIS optimizer.
 FormGI is forming the generalized inverse of G from B-inverse, IUseBI=4.
 Internal  Forces:  Max     0.001088816 RMS     0.000877055
 Search for a local minimum.
 Step number   2 out of a maximum of  100
 All quantities printed in internal units (Hartrees-Bohrs-Radians)
 RMS Force = .87706D-03 SwitMx=.10000D-02 MixMth= 2
 Mixed Optimization -- En-DIIS/RFO-DIIS
 Update second derivatives using D2CorX and points    1    2
 DE= -1.79D-04 DEPred=-1.37D-04 R= 1.31D+00
 TightC=F SS=  1.41D+00  RLast= 3.77D-02 DXNew= 5.0454D-01 1.1304D-01
 Trust test= 1.31D+00 RLast= 3.77D-02 DXMaxT set to 3.00D-01
 The second derivative matrix:
                          R1        R2        R3        A1        A2
           R1           0.45005
           R2           0.00340   0.45005
           R3           0.00340   0.00340   0.45005
           A1           0.03642   0.03642   0.03642   0.14685
           A2           0.02938   0.02938   0.02938  -0.01305   0.14749
           A3           0.02938   0.02938   0.02938  -0.01305  -0.01251
           D1           0.00698   0.00698   0.00698   0.00110   0.00044
                          A3        D1
           A3           0.14749
           D1           0.00044   0.00878
 ITU=  1  0
 Use linear search instead of GDIIS.
     Eigenvalues ---    0.04824   0.15008   0.16000   0.44664   0.44664
     Eigenvalues ---    0.46604
 RFO step:  Lambda=-3.82650617D-05 EMin= 4.82409601D-02
 Quartic linear search produced a step of  0.43993.
 Iteration  1 RMS(Cart)=  0.00876578 RMS(Int)=  0.00022607
 Iteration  2 RMS(Cart)=  0.00012295 RMS(Int)=  0.00018489
 Iteration  3 RMS(Cart)=  0.00000000 RMS(Int)=  0.00018489
 ITry= 1 IFail=0 DXMaxC= 1.81D-02 DCOld= 1.00D+10 DXMaxT= 3.00D-01 DXLimC= 3.00D+00 Rises=F
 ClnCor:  largest displacement from symmetrization is 9.83D-05 for atom     4.
 Variable       Old X    -DE/DX   Delta X   Delta X   Delta X     New X
                                 (Linear)    (Quad)   (Total)
    R1        1.93607   0.00081   0.00545  -0.00106   0.00441   1.94048
    R2        1.93607   0.00081   0.00545  -0.00106   0.00441   1.94048
    R3        1.93607   0.00081   0.00545  -0.00106   0.00441   1.94048
    A1        1.83363  -0.00026  -0.00527  -0.00880  -0.01452   1.81911
    A2        1.83363  -0.00104  -0.00527  -0.00921  -0.01452   1.81911
    A3        1.83363  -0.00104  -0.00527  -0.00921  -0.01452   1.81911
    D1       -1.92945   0.00109   0.01011   0.01688   0.02674  -1.90271
         Item               Value     Threshold  Converged?
 Maximum Force            0.001089     0.000450     NO 
 RMS     Force            0.000877     0.000300     NO 
 Maximum Displacement     0.018121     0.001800     NO 
 RMS     Displacement     0.008799     0.001200     NO 
 Predicted change in Energy=-3.539523D-05
 Lowest energy point so far.  Saving SCF results.
 GradGradGradGradGradGradGradGradGradGradGradGradGradGradGradGradGradGrad

 Leave Link  103 at Thu Feb 15 13:07:05 2018, MaxMem=   262144000 cpu:         0.0
 (Enter /home/chemsoft/gaussian/g09e01/g09/l202.exe)
                          Input orientation:                          
 ---------------------------------------------------------------------
 Center     Atomic      Atomic             Coordinates (Angstroms)
 Number     Number       Type             X           Y           Z
 ---------------------------------------------------------------------
      1          7           0       -0.000000    0.000000   -0.089581
      2          1           0       -0.935802   -0.000000    0.333167
      3          1           0        0.467901    0.810428    0.333167
      4          1           0        0.467901   -0.810428    0.333167
 ---------------------------------------------------------------------
                    Distance matrix (angstroms):
                    1          2          3          4
     1  N    0.000000
     2  H    1.026859   0.000000
     3  H    1.026859   1.620856   0.000000
     4  H    1.026859   1.620856   1.620856   0.000000
 Stoichiometry    H3N
 Framework group  C3V[C3(N),3SGV(H)]
 Deg. of freedom     2
 Full point group                 C3V     NOp   6
 RotChk:  IX=0 Diff= 2.36D-16
 Largest Abelian subgroup         CS      NOp   2
 Largest concise Abelian subgroup CS      NOp   2
                         Standard orientation:                         
 ---------------------------------------------------------------------
 Center     Atomic      Atomic             Coordinates (Angstroms)
 Number     Number       Type             X           Y           Z
 ---------------------------------------------------------------------
      1          7           0        0.000000    0.000000    0.126824
      2          1           0        0.000000    0.935802   -0.295923
      3          1           0       -0.810428   -0.467901   -0.295923
      4          1           0        0.810428   -0.467901   -0.295923
 ---------------------------------------------------------------------
 Rotational constants (GHZ):    285.8064221    285.8064221    190.8724292
 Leave Link  202 at Thu Feb 15 13:07:05 2018, MaxMem=   262144000 cpu:         0.0
 (Enter /home/chemsoft/gaussian/g09e01/g09/l301.exe)
 Standard basis: def2SVP (5D, 7F)
 Ernie: Thresh=  0.10000D-02 Tol=  0.10000D-05 Strict=F.
 There are    20 symmetry adapted cartesian basis functions of A'  symmetry.
 There are    10 symmetry adapted cartesian basis functions of A"  symmetry.
 There are    19 symmetry adapted basis functions of A'  symmetry.
 There are    10 symmetry adapted basis functions of A"  symmetry.
    29 basis functions,    46 primitive gaussians,    30 cartesian basis functions
     5 alpha electrons        5 beta electrons
       nuclear repulsion energy        11.8014896194 Hartrees.
 IExCor= 3630 DFT=T Ex+Corr=B97D3 ExCW=0 ScaHFX=  0.000000
 ScaDFX=  1.000000  1.000000  1.000000  1.000000 ScalE2=  1.000000  1.000000
 IRadAn=      5 IRanWt=     -1 IRanGd=            0 ICorTp=0 IEmpDi=141
 NAtoms=    4 NActive=    4 NUniq=    2 SFac= 4.00D+00 NAtFMM=   60 NAOKFM=F Big=F
 Integral buffers will be    131072 words long.
 Raffenetti 2 integral format.
 Two-electron integral symmetry is turned on.
 R6Disp:  Grimme-D3(BJ) Dispersion energy=       -0.0026851146 Hartrees.
[...]
 Leave Link  202 at Thu Feb 15 13:07:12 2018, MaxMem=   262144000 cpu:         0.0
 (Enter /home/chemsoft/gaussian/g09e01/g09/l601.exe)
 Copying SCF densities to generalized density rwf, IOpCl= 0 IROHF=0.

 **********************************************************************

            Population analysis using the SCF density.

 **********************************************************************

 Orbital symmetries:
       Occupied  (A1) (A1) (E) (E) (A1)
       Virtual   (A1) (E) (E) (E) (E) (A1) (A1) (E) (E) (A1) (E)
                 (E) (A2) (A1) (E) (E) (E) (E) (A1) (E) (E) (A1)
                 (E) (E)
 The electronic state is 1-A1.
 Alpha  occ. eigenvalues --  -13.98093  -0.75912  -0.39809  -0.39809  -0.20752
 Alpha virt. eigenvalues --    0.03572   0.11662   0.11662   0.47296   0.47296
 Alpha virt. eigenvalues --    0.59616   0.69897   0.79443   0.79443   0.89261
 Alpha virt. eigenvalues --    1.13364   1.13364   1.54631   1.59530   1.73858
 Alpha virt. eigenvalues --    1.73858   1.99594   1.99594   2.38882   2.70243
 Alpha virt. eigenvalues --    2.70243   2.75885   3.23950   3.23950
     Molecular Orbital Coefficients:
                           1         2         3         4         5
                        (A1)--O   (A1)--O   (E)--O    (E)--O    (A1)--O
     Eigenvalues --   -13.98093  -0.75912  -0.39809  -0.39809  -0.20752
   1 1   N  1S          0.98833   0.25923   0.00000  -0.00000  -0.10565
   2        2S         -0.04443   0.52100   0.00000  -0.00000  -0.21656
   3        3S          0.01813   0.16363   0.00000  -0.00000  -0.34739
   4        4PX         0.00000   0.00000   0.46643   0.00000   0.00000
   5        4PY        -0.00000   0.00000   0.00000   0.46643  -0.00000
   6        4PZ        -0.00387   0.11732   0.00000   0.00000   0.53967
   7        5PX         0.00000   0.00000  -0.18902   0.00000   0.00000
   8        5PY        -0.00000   0.00000   0.00000  -0.18902  -0.00000
   9        5PZ        -0.00046  -0.00522   0.00000   0.00000  -0.42565
  10        6D 0        0.00125  -0.00140   0.00000  -0.00000   0.02176
  11        6D+1        0.00000   0.00000   0.02163   0.00000   0.00000
  12        6D-1        0.00000   0.00000   0.00000   0.02163   0.00000
  13        6D+2       -0.00000   0.00000   0.00000   0.00916  -0.00000
  14        6D-2        0.00000   0.00000   0.00916   0.00000   0.00000
  15 2   H  1S          0.00335   0.19721   0.00000  -0.37974   0.09503
  16        2S         -0.00291   0.02443   0.00000  -0.15341   0.06224
  17        3PX         0.00000   0.00000  -0.02229   0.00000   0.00000
  18        3PY        -0.00329  -0.02691   0.00000   0.01611  -0.00998
  19        3PZ         0.00148   0.00417   0.00000  -0.01161  -0.02266
  20 3   H  1S          0.00335   0.19721   0.32886   0.18987   0.09503
  21        2S         -0.00291   0.02443   0.13286   0.07671   0.06224
  22        3PX         0.00285   0.02331   0.00651   0.01663   0.00864
  23        3PY         0.00164   0.01346   0.01663  -0.01269   0.00499
  24        3PZ         0.00148   0.00417   0.01005   0.00581  -0.02266
  25 4   H  1S          0.00335   0.19721  -0.32886   0.18987   0.09503
  26        2S         -0.00291   0.02443  -0.13286   0.07671   0.06224
  27        3PX        -0.00285  -0.02331   0.00651  -0.01663  -0.00864
  28        3PY         0.00164   0.01346  -0.01663  -0.01269   0.00499
  29        3PZ         0.00148   0.00417  -0.01005   0.00581  -0.02266
                           6         7         8         9        10
                        (A1)--V   (E)--V    (E)--V    (E)--V    (E)--V
     Eigenvalues --     0.03572   0.11662   0.11662   0.47296   0.47296
   1 1   N  1S          0.12823   0.00000   0.00000   0.00000   0.00000
   2        2S          0.22280   0.00000   0.00000   0.00000   0.00000
   3        3S          1.42840   0.00000   0.00000   0.00000  -0.00000
   4        4PX         0.00000  -0.40217   0.00000  -0.15516   0.00000
   5        4PY        -0.00000   0.00000   0.40217   0.00000   0.15516
   6        4PZ         0.20482   0.00000   0.00000   0.00000   0.00000
   7        5PX         0.00000   0.77285   0.00000   0.50576   0.00000
   8        5PY         0.00000   0.00000  -0.77285   0.00000  -0.50576
   9        5PZ        -0.35744   0.00000  -0.00000   0.00000   0.00000
  10        6D 0        0.00540   0.00000   0.00000   0.00000   0.00000
  11        6D+1        0.00000  -0.00791   0.00000   0.06822   0.00000
  12        6D-1       -0.00000   0.00000   0.00791   0.00000  -0.06822
  13        6D+2        0.00000   0.00000  -0.00794   0.00000  -0.09356
  14        6D-2        0.00000   0.00794   0.00000   0.09356   0.00000
  15 2   H  1S         -0.09139   0.00000   0.14477   0.00000   1.06292
  16        2S         -0.75696   0.00000   1.54106   0.00000  -0.84048
  17        3PX         0.00000   0.00742   0.00000   0.09200   0.00000
  18        3PY        -0.00792   0.00000   0.00848   0.00000   0.05397
  19        3PZ         0.00212   0.00000  -0.00812   0.00000  -0.05265
  20 3   H  1S         -0.09139   0.12537  -0.07238   0.92052  -0.53146
  21        2S         -0.75696   1.33459  -0.77053  -0.72788   0.42024
  22        3PX         0.00686  -0.00450   0.00688  -0.01748   0.06321
  23        3PY         0.00396  -0.00688  -0.00345  -0.06321  -0.05551
  24        3PZ         0.00212  -0.00703   0.00406  -0.04559   0.02632
  25 4   H  1S         -0.09139  -0.12537  -0.07238  -0.92052  -0.53146
  26        2S         -0.75696  -1.33459  -0.77053   0.72788   0.42024
  27        3PX        -0.00686  -0.00450  -0.00688  -0.01748  -0.06321
  28        3PY         0.00396   0.00688  -0.00345   0.06321  -0.05551
  29        3PZ         0.00212   0.00703   0.00406   0.04559   0.02632
                          11        12        13        14        15
                        (A1)--V   (A1)--V   (E)--V    (E)--V    (A1)--V
     Eigenvalues --     0.59616   0.69897   0.79443   0.79443   0.89261
   1 1   N  1S         -0.17967  -0.16536   0.00000  -0.00000  -0.18097
   2        2S         -0.83123  -0.83446   0.00000  -0.00000  -1.49618
   3        3S          1.32668   0.76526   0.00000   0.00000   3.59970
   4        4PX         0.00000   0.00000   0.88819   0.00000   0.00000
   5        4PY        -0.00000  -0.00000   0.00000   0.88819  -0.00000
   6        4PZ        -0.39214   0.84936   0.00000  -0.00000  -0.24121
   7        5PX         0.00000   0.00000   1.74371   0.00000   0.00000
   8        5PY        -0.00000  -0.00000   0.00000   1.74371  -0.00000
   9        5PZ        -0.30481   0.96622   0.00000  -0.00000  -0.91263
  10        6D 0       -0.07590   0.00060   0.00000   0.00000   0.10070
  11        6D+1        0.00000   0.00000  -0.03453   0.00000   0.00000
  12        6D-1       -0.00000   0.00000   0.00000  -0.03453  -0.00000
  13        6D+2        0.00000   0.00000   0.00000  -0.03738   0.00000
  14        6D-2        0.00000   0.00000  -0.03738   0.00000   0.00000
  15 2   H  1S          0.57575   0.16194   0.00000  -0.07848  -0.65449
  16        2S         -0.64175  -0.11497   0.00000  -1.24903  -0.55238
  17        3PX         0.00000   0.00000   0.00788   0.00000   0.00000
  18        3PY         0.17544  -0.01484   0.00000   0.20380  -0.00887
  19        3PZ         0.00205   0.01065   0.00000  -0.09844  -0.16704
  20 3   H  1S          0.57575   0.16194   0.06797   0.03924  -0.65449
  21        2S         -0.64175  -0.11497   1.08170   0.62452  -0.55238
  22        3PX        -0.15194   0.01285   0.15482   0.08484   0.00768
  23        3PY        -0.08772   0.00742   0.08484   0.05686   0.00443
  24        3PZ         0.00205   0.01065   0.08525   0.04922  -0.16704
  25 4   H  1S          0.57575   0.16194  -0.06797   0.03924  -0.65449
  26        2S         -0.64175  -0.11497  -1.08170   0.62452  -0.55238
  27        3PX         0.15194  -0.01285   0.15482  -0.08484  -0.00768
  28        3PY        -0.08772   0.00742  -0.08484   0.05686   0.00443
  29        3PZ         0.00205   0.01065  -0.08525   0.04922  -0.16704
                          16        17        18        19        20
                        (E)--V    (E)--V    (A2)--V   (A1)--V   (E)--V
     Eigenvalues --     1.13364   1.13364   1.54631   1.59530   1.73858
   1 1   N  1S          0.00000  -0.00000   0.00000  -0.09213   0.00000
   2        2S          0.00000  -0.00000   0.00000  -0.87206   0.00000
   3        3S          0.00000   0.00000   0.00000   1.84388   0.00000
   4        4PX         0.01842   0.00000   0.00000   0.00000   0.00000
   5        4PY         0.00000  -0.01842   0.00000  -0.00000   0.00297
   6        4PZ         0.00000  -0.00000   0.00000  -0.09621   0.00000
   7        5PX        -0.34147   0.00000  -0.00000   0.00000   0.00000
   8        5PY         0.00000   0.34147   0.00000  -0.00000   0.93314
   9        5PZ         0.00000  -0.00000   0.00000  -1.06716  -0.00000
  10        6D 0        0.00000  -0.00000   0.00000  -0.30539   0.00000
  11        6D+1       -0.19688   0.00000   0.00000   0.00000   0.00000
  12        6D-1        0.00000   0.19688   0.00000  -0.00000   0.10088
  13        6D+2        0.00000  -0.16026   0.00000   0.00000  -0.05396
  14        6D-2        0.16026   0.00000   0.00000   0.00000   0.00000
  15 2   H  1S          0.00000  -0.16169   0.00000  -0.54055  -0.39846
  16        2S          0.00000  -0.06069   0.00000  -0.19979  -0.18574
  17        3PX         0.48991   0.00000   0.61250   0.00000   0.00000
  18        3PY         0.00000   0.21557   0.00000   0.06865  -0.29976
  19        3PZ         0.00000   0.44622   0.00000   0.51991  -0.61464
  20 3   H  1S         -0.14003   0.08084  -0.00000  -0.54055   0.19923
  21        2S         -0.05256   0.03034  -0.00000  -0.19979   0.09287
  22        3PX        -0.03920   0.30548  -0.30625  -0.05945   0.14657
  23        3PY        -0.30548  -0.31354   0.53044  -0.03433  -0.55362
  24        3PZ         0.38643  -0.22311  -0.00000   0.51991   0.30732
  25 4   H  1S          0.14003   0.08084   0.00000  -0.54055   0.19923
  26        2S          0.05256   0.03034   0.00000  -0.19979   0.09287
  27        3PX        -0.03920  -0.30548  -0.30625   0.05945  -0.14657
  28        3PY         0.30548  -0.31354  -0.53044  -0.03433  -0.55362
  29        3PZ        -0.38643  -0.22311   0.00000   0.51991   0.30732
                          21        22        23        24        25
                        (E)--V    (E)--V    (E)--V    (A1)--V   (E)--V
     Eigenvalues --     1.73858   1.99594   1.99594   2.38882   2.70243
   1 1   N  1S          0.00000   0.00000   0.00000   0.16704   0.00000
   2        2S          0.00000   0.00000   0.00000   0.71773   0.00000
   3        3S          0.00000   0.00000   0.00000   1.70117   0.00000
   4        4PX         0.00297   0.68942   0.00000   0.00000   0.00000
   5        4PY         0.00000   0.00000  -0.68942   0.00000   0.02384
   6        4PZ         0.00000   0.00000   0.00000   0.48225   0.00000
   7        5PX         0.93314  -0.03207   0.00000   0.00000   0.00000
   8        5PY         0.00000   0.00000   0.03207   0.00000   0.37684
   9        5PZ         0.00000   0.00000  -0.00000  -0.87169   0.00000
  10        6D 0        0.00000   0.00000   0.00000   0.42010  -0.00000
  11        6D+1        0.10088  -0.20112   0.00000   0.00000   0.00000
  12        6D-1        0.00000   0.00000   0.20112  -0.00000  -0.76426
  13        6D+2        0.00000   0.00000   0.22079   0.00000   0.78418
  14        6D-2       -0.05396  -0.22079   0.00000   0.00000   0.00000
  15 2   H  1S          0.00000   0.00000  -0.06504  -0.68859  -0.11690
  16        2S          0.00000   0.00000  -0.37959  -0.31208  -0.09205
  17        3PX        -0.63824   0.05731   0.00000   0.00000   0.00000
  18        3PY         0.00000   0.00000   0.78387   0.79803   0.10044
  19        3PZ         0.00000   0.00000  -0.40669   0.09389   0.27127
  20 3   H  1S          0.34508  -0.05632   0.03252  -0.68859   0.05845
  21        2S          0.16086  -0.32874   0.18980  -0.31208   0.04603
  22        3PX        -0.38438  -0.57358   0.36424  -0.69111   0.28275
  23        3PY         0.14657  -0.36424   0.15299  -0.39901  -0.38929
  24        3PZ         0.53229  -0.35220   0.20334   0.09389  -0.13563
  25 4   H  1S         -0.34508   0.05632   0.03252  -0.68859   0.05845
  26        2S         -0.16086   0.32874   0.18980  -0.31208   0.04603
  27        3PX        -0.38438  -0.57358  -0.36424   0.69111  -0.28275
  28        3PY        -0.14657   0.36424   0.15299  -0.39901  -0.38929
  29        3PZ        -0.53229   0.35220   0.20334   0.09389  -0.13563
                          26        27        28        29
                        (E)--V    (A1)--V   (E)--V    (E)--V
     Eigenvalues --     2.70243   2.75885   3.23950   3.23950
   1 1   N  1S          0.00000   0.14831   0.00000   0.00000
   2        2S          0.00000   0.69686   0.00000   0.00000
   3        3S          0.00000   1.24412   0.00000   0.00000
   4        4PX         0.02384   0.00000  -0.68571   0.00000
   5        4PY         0.00000  -0.00000   0.00000   0.68571
   6        4PZ         0.00000   0.38247   0.00000   0.00000
   7        5PX         0.37684   0.00000   1.00817   0.00000
   8        5PY         0.00000  -0.00000   0.00000  -1.00817
   9        5PZ         0.00000  -0.18391   0.00000  -0.00000
  10        6D 0        0.00000  -0.99827   0.00000  -0.00000
  11        6D+1       -0.76426   0.00000  -0.95272   0.00000
  12        6D-1        0.00000   0.00000   0.00000   0.95272
  13        6D+2        0.00000  -0.00000   0.00000   0.97956
  14        6D-2        0.78418   0.00000  -0.97956   0.00000
  15 2   H  1S          0.00000  -0.58041   0.00000   1.15856
  16        2S          0.00000  -0.20521   0.00000   0.42199
  17        3PX        -0.55253   0.00000  -0.04683   0.00000
  18        3PY         0.00000   0.44294   0.00000  -0.93133
  19        3PZ         0.00000  -0.49083   0.00000   0.42173
  20 3   H  1S          0.10124  -0.58041   1.00335  -0.57928
  21        2S          0.07972  -0.20521   0.36545  -0.21099
  22        3PX        -0.06280  -0.38360   0.68679  -0.42356
  23        3PY         0.28275  -0.22147   0.42356  -0.19771
  24        3PZ        -0.23493  -0.49083   0.36523  -0.21087
  25 4   H  1S         -0.10124  -0.58041  -1.00335  -0.57928
  26        2S         -0.07972  -0.20521  -0.36545  -0.21099
  27        3PX        -0.06280   0.38360   0.68679   0.42356
  28        3PY        -0.28275  -0.22147  -0.42356  -0.19771
  29        3PZ         0.23493  -0.49083  -0.36523  -0.21087
          Condensed to atoms (all electrons):
               1          2          3          4
     1  N    6.179302   0.348765   0.348765   0.348765
     2  H    0.348765   0.633753  -0.028859  -0.028859
     3  H    0.348765  -0.028859   0.633753  -0.028859
     4  H    0.348765  -0.028859  -0.028859   0.633753
 Mulliken charges:
               1
     1  N   -0.225597
     2  H    0.075199
     3  H    0.075199
     4  H    0.075199
 Sum of Mulliken charges =  -0.00000
 Mulliken charges with hydrogens summed into heavy atoms:
               1
     1  N   -0.000000
 Electronic spatial extent (au):  <R**2>=             26.3504
 Charge=             -0.0000 electrons
 Dipole moment (field-independent basis, Debye):
    X=             -0.0000    Y=             -0.0000    Z=             -1.7527  Tot=              1.7527
 Quadrupole moment (field-independent basis, Debye-Ang):
   XX=             -6.2540   YY=             -6.2540   ZZ=             -8.5126
   XY=              0.0000   XZ=              0.0000   YZ=              0.0000
 Traceless Quadrupole moment (field-independent basis, Debye-Ang):
   XX=              0.7529   YY=              0.7529   ZZ=             -1.5057
   XY=              0.0000   XZ=              0.0000   YZ=              0.0000
 Octapole moment (field-independent basis, Debye-Ang**2):
  XXX=             -0.0000  YYY=              0.6237  ZZZ=             -1.4224  XYY=              0.0000
  XXY=             -0.6237  XXZ=             -0.7040  XZZ=              0.0000  YZZ=             -0.0000
  YYZ=             -0.7040  XYZ=              0.0000
 Hexadecapole moment (field-independent basis, Debye-Ang**3):
 XXXX=             -9.9823 YYYY=             -9.9823 ZZZZ=             -9.4157 XXXY=              0.0000
 XXXZ=              0.0000 YYYX=              0.0000 YYYZ=             -0.2886 ZZZX=             -0.0000
 ZZZY=              0.0000 XXYY=             -3.3274 XXZZ=             -3.2439 YYZZ=             -3.2439
 XXYZ=              0.2886 YYXZ=             -0.0000 ZZXY=              0.0000
 N-N= 1.179880450481D+01 E-N=-1.553493430073D+02  KE= 5.594621002046D+01
 Symmetry A'   KE= 5.334841136488D+01
 Symmetry A"   KE= 2.597798655582D+00
 Orbital energies and kinetic energies (alpha):
                                 1                 2
   1         (A1)--O         -13.980925         21.758130
   2         (A1)--O          -0.759122          1.945577
   3         (E)--O           -0.398095          1.298899
   4         (E)--O           -0.398095          1.298899
   5         (A1)--O          -0.207520          1.671599
   6         (A1)--V           0.035721          0.862071
   7         (E)--V            0.116619          0.957880
   8         (E)--V            0.116619          0.957880
   9         (E)--V            0.472958          1.519979
  10         (E)--V            0.472958          1.519979
  11         (A1)--V           0.596158          2.548018
  12         (A1)--V           0.698972          2.937869
  13         (E)--V            0.794430          2.592332
  14         (E)--V            0.794430          2.592332
  15         (A1)--V           0.892613          2.294316
  16         (E)--V            1.133642          1.992471
  17         (E)--V            1.133642          1.992471
  18         (A2)--V           1.546315          2.297388
  19         (A1)--V           1.595297          2.620723
  20         (E)--V            1.738575          2.480872
  21         (E)--V            1.738575          2.480872
  22         (E)--V            1.995941          3.541323
  23         (E)--V            1.995941          3.541323
  24         (A1)--V           2.388819          4.298289
  25         (E)--V            2.702426          4.075305
  26         (E)--V            2.702426          4.075305
  27         (A1)--V           2.758847          4.613411
  28         (E)--V            3.239498          5.197771
  29         (E)--V            3.239498          5.197771
 Total kinetic energy from orbitals= 5.594621002046D+01
 No NMR shielding tensors so no spin-rotation constants.
 Leave Link  601 at Thu Feb 15 13:07:12 2018, MaxMem=   262144000 cpu:         0.4
 (Enter /home/chemsoft/gaussian/g09e01/g09/l9999.exe)

 Test job not archived.
 1\1\GINC-LENOX07\FOpt\RB97D3\def2SVP/W06\H3N1\MARTIN\15-Feb-2018\0\\#P
  B97D3/def2SVP/W06 DenFit opt(MaxCycle=100) scf(xqc,MaxConventionalCyc
 le=500) int(ultrafinegrid) gfinput gfoldprint iop(6/7=3) symmetry(loos
 e)\\Ammonia DF-B97D3/def2-SVP\\0,1\N,-0.0000000001,0.,-0.0895805057\H,
 -0.9358016331,-0.0000000003,0.333166707\H,0.4679008162,0.8104279873,0.
 333166707\H,0.4679008167,-0.810427987,0.333166707\\Version=ES64L-G09Re
 vE.01\State=1-A1\HF=-56.478051\RMSD=9.608e-10\RMSF=1.061e-04\Dipole=0.
 ,0.,0.6895793\Quadrupole=0.5597382,0.5597382,-1.1194764,0.,0.,0.\PG=C0
 3V [C3(N1),3SGV(H1)]\\@


 ... A MOLECULAR SYSTEM ... (PASSES) ... FROM ONE STATE OF EQUILIBRIUM 
 TO ANOTHER ... BY MEANS OF ALL POSSIBLE INTERMEDIATE PATHS, 
 BUT THE PATH MOST ECONOMICAL OF ENERGY WILL BE THE MORE OFTEN TRAVELED.

                      -- HENRY EYRING, 1945
 Job cpu time:       0 days  0 hours  0 minutes 43.5 seconds.
 File lengths (MBytes):  RWF=      5 Int=      0 D2E=      0 Chk=      1 Scr=      1
 Normal termination of Gaussian 09 at Thu Feb 15 13:07:12 2018.
