Ammonia DF-BP86/def2-SVP                                                
FOpt      RBP86                                                       def2SVP/W06         
Number of atoms                            I                4
Info1-9                                    I   N=           9
          19          18           0           0           0         111
           2          18         402
Full Title                                 C   N=           2
Ammonia DF-BP86/def2-SVP
Route                                      C   N=          12
#P BP86/def2SVP/W06 DenFit opt(MaxCycle=100) scf(xqc,MaxConv
entionalCycle=500) int(ultrafinegrid) gfinput gfoldprint iop
(6/7=3) symmetry(loose) 
Charge                                     I                0
Multiplicity                               I                1
Number of electrons                        I               10
Number of alpha electrons                  I                5
Number of beta electrons                   I                5
Number of basis functions                  I               29
Number of independent functions            I               29
Number of point charges in /Mol/           I                0
Number of translation vectors              I                0
Atomic numbers                             I   N=           4
           7           1           1           1
Nuclear charges                            R   N=           4
  7.00000000E+00  1.00000000E+00  1.00000000E+00  1.00000000E+00
Current cartesian coordinates              R   N=          12
  0.00000000E+00 -0.00000000E+00  2.41713250E-01  0.00000000E+00  1.77600426E+00
 -5.63997583E-01 -1.53806481E+00 -8.88002131E-01 -5.63997583E-01  1.53806481E+00
 -8.88002131E-01 -5.63997583E-01
Number of symbols in /Mol/                 I                0
Redundant internal dimensions              I   N=           4
           7           3           3           1
Redundant internal coordinate indices      I   N=          28
           1           2           0           0           1           3
           0           0           1           4           0           0
           2           1           3           0           2           1
           4           0           3           1           4           0
           2           1           4           3
Redundant internal coordinates             R   N=           7
  1.95022078E+00  1.95022078E+00  1.95022078E+00  1.81725910E+00  1.81725910E+00
  1.81725910E+00 -1.89938535E+00
ZRed-IntVec                                I   N=           7
           0           0           0           0           0           0
           0
ZRed-FPVec                                 R   N=           7
  0.00000000E+00  0.00000000E+00  0.00000000E+00  0.00000000E+00  0.00000000E+00
  0.00000000E+00  0.00000000E+00
ZRed-Constraint1                           R   N=           7
  1.92367312E+00  1.92367312E+00  1.92367312E+00  1.84561291E+00  1.84561291E+00
  1.84561291E+00 -1.95243253E+00
ZRed-Constraint2                           R   N=           7
  0.00000000E+00  0.00000000E+00  0.00000000E+00  0.00000000E+00  0.00000000E+00
  0.00000000E+00  0.00000000E+00
Force Field                                I                0
Atom Types                                 C   N=           4
                                                
Int Atom Types                             I   N=           4
           0           0           0           0
MM charges                                 R   N=           4
  0.00000000E+00  0.00000000E+00  0.00000000E+00  0.00000000E+00
Integer atomic weights                     I   N=           4
          14           1           1           1
Real atomic weights                        R   N=           4
  1.40030740E+01  1.00782504E+00  1.00782504E+00  1.00782504E+00
Atom fragment info                         I   N=           4
           0           0           0           0
Atom residue num                           I   N=           4
           0           0           0           0
Nuclear spins                              I   N=           4
           2           1           1           1
Nuclear ZEff                               R   N=           4
 -4.55000000E+00 -1.00000000E+00 -1.00000000E+00 -1.00000000E+00
Nuclear ZNuc                               R   N=           4
  7.00000000E+00  1.00000000E+00  1.00000000E+00  1.00000000E+00
Nuclear QMom                               R   N=           4
  2.04400000E+00  0.00000000E+00  0.00000000E+00  0.00000000E+00
Nuclear GFac                               R   N=           4
  4.03761000E-01  2.79284600E+00  2.79284600E+00  2.79284600E+00
MicOpt                                     I   N=           4
          -1          -1          -1          -1
Number of residues                         I                0
Number of secondary structures             I                0
SymInf integers                            I   N=          26
           2           2           1           1           1          -1
           1           1           0           0           0           0
           0           0           0           0           0           0
           0           0           0           0           0           0
           0           0
RotTr to input orientation                 R   N=          12
  3.34104411E-10 -1.00000000E+00  0.00000000E+00 -1.00000000E+00 -3.34104411E-10
  0.00000000E+00  0.00000000E+00  0.00000000E+00 -1.00000000E+00 -1.88972460E-10
  2.88657986E-16  6.72972498E-02
Number of contracted shells                I               15
Number of primitive shells                 I               27
Pure/Cartesian d shells                    I                0
Pure/Cartesian f shells                    I                0
Highest angular momentum                   I                2
Largest degree of contraction              I                5
Shell types                                I   N=          15
           0           0           0           1           1          -2
           0           0           1           0           0           1
           0           0           1
Number of primitives per shell             I   N=          15
           5           1           1           3           1           1
           3           1           1           3           1           1
           3           1           1
Shell to atom map                          I   N=          15
           1           1           1           1           1           1
           2           2           2           3           3           3
           4           4           4
Primitive exponents                        R   N=          27
  1.71284159E+03  2.57648127E+02  5.84582459E+01  1.61983679E+01  5.00526008E+00
  5.87318566E-01  1.87645923E-01  1.35714702E+01  2.92573729E+00  7.99277508E-01
  2.19543480E-01  1.00000000E+00  1.30107010E+01  1.96225720E+00  4.44537960E-01
  1.21949620E-01  8.00000000E-01  1.30107010E+01  1.96225720E+00  4.44537960E-01
  1.21949620E-01  8.00000000E-01  1.30107010E+01  1.96225720E+00  4.44537960E-01
  1.21949620E-01  8.00000000E-01
Contraction coefficients                   R   N=          27
 -5.44779958E-03 -4.06271746E-02 -1.81119623E-01 -4.68439756E-01 -4.46168463E-01
  1.00000000E+00  1.00000000E+00 -5.88481170E-02 -3.20246248E-01 -7.53282265E-01
  1.00000000E+00  1.00000000E+00  3.34854848E-02  2.34721871E-01  8.13770285E-01
  1.00000000E+00  1.00000000E+00  3.34854848E-02  2.34721871E-01  8.13770285E-01
  1.00000000E+00  1.00000000E+00  3.34854848E-02  2.34721871E-01  8.13770285E-01
  1.00000000E+00  1.00000000E+00
Coordinates of each shell                  R   N=          45
  0.00000000E+00  0.00000000E+00  2.41713250E-01  0.00000000E+00  0.00000000E+00
  2.41713250E-01  0.00000000E+00  0.00000000E+00  2.41713250E-01  0.00000000E+00
  0.00000000E+00  2.41713250E-01  0.00000000E+00  0.00000000E+00  2.41713250E-01
  0.00000000E+00  0.00000000E+00  2.41713250E-01  0.00000000E+00  1.77600426E+00
 -5.63997583E-01  0.00000000E+00  1.77600426E+00 -5.63997583E-01  0.00000000E+00
  1.77600426E+00 -5.63997583E-01 -1.53806481E+00 -8.88002131E-01 -5.63997583E-01
 -1.53806481E+00 -8.88002131E-01 -5.63997583E-01 -1.53806481E+00 -8.88002131E-01
 -5.63997583E-01  1.53806481E+00 -8.88002131E-01 -5.63997583E-01  1.53806481E+00
 -8.88002131E-01 -5.63997583E-01  1.53806481E+00 -8.88002131E-01 -5.63997583E-01
Density Number of contracted shells        I               30
Density Number of primitive shells         I               48
Density Pure/Cartesian d shells            I                0
Density Pure/Cartesian f shells            I                0
Density Highest angular momentum           I                4
Density Largest degree of contraction      I                7
Density Shell types                        I   N=          30
           0           0           0           0           0           0
           1           1           1           1          -2          -2
          -2          -3          -4           0           0           0
           1          -2           0           0           0           1
          -2           0           0           0           1          -2
Density Number of primitives per shell     I   N=          30
           7           1           1           1           1           1
           2           1           1           1           2           1
           1           2           1           3           1           1
           2           1           3           1           1           2
           1           3           1           1           2           1
Density Shell to atom map                  I   N=          30
           1           1           1           1           1           1
           1           1           1           1           1           1
           1           1           1           2           2           2
           2           2           3           3           3           3
           3           4           4           4           4           4
Density Primitive exponents                R   N=          48
  2.54294018E+03  1.02954730E+03  4.24905355E+02  1.78457371E+02  7.61362742E+01
  3.29338653E+01  1.44155436E+01  6.37188910E+00  2.83817420E+00  1.27117930E+00
  5.71240700E-01  2.56988700E-01  1.78975990E+01  6.53463190E+00  2.35236450E+00
  8.39737700E-01  2.98933500E-01  7.69098700E+00  2.30449720E+00  8.40398700E-01
  3.30379700E-01  2.33310760E+00  8.44613700E-01  1.40377000E+00  1.56752927E+01
  3.60635780E+00  1.20800160E+00  4.72679400E-01  2.01810000E-01  2.02813650E+00
  5.35873000E-01  2.21651240E+00  1.56752927E+01  3.60635780E+00  1.20800160E+00
  4.72679400E-01  2.01810000E-01  2.02813650E+00  5.35873000E-01  2.21651240E+00
  1.56752927E+01  3.60635780E+00  1.20800160E+00  4.72679400E-01  2.01810000E-01
  2.02813650E+00  5.35873000E-01  2.21651240E+00
Density Contraction coefficients           R   N=          48
  1.57267989E-03  3.97704448E-03  1.95376611E-02  7.47626441E-02  2.18976743E-01
  4.21671880E-01  2.96402909E-01 -1.00000000E+00  1.00000000E+00  1.00000000E+00
  1.00000000E+00  1.00000000E+00 -1.19813247E+00  2.49356462E-01  1.00000000E+00
  1.00000000E+00  1.00000000E+00  9.91894048E-02  9.12612482E-01  1.00000000E+00
  1.00000000E+00  4.52107608E-01  6.08156234E-01 -1.00000000E+00  3.26115897E-02
  2.29804684E-01  7.57208324E-01  1.00000000E+00  1.00000000E+00  3.61836199E-01
  7.03930309E-01  1.00000000E+00  3.26115897E-02  2.29804684E-01  7.57208324E-01
  1.00000000E+00  1.00000000E+00  3.61836199E-01  7.03930309E-01  1.00000000E+00
  3.26115897E-02  2.29804684E-01  7.57208324E-01  1.00000000E+00  1.00000000E+00
  3.61836199E-01  7.03930309E-01  1.00000000E+00
Density Coordinates of each shell          R   N=          90
  0.00000000E+00  0.00000000E+00  2.41713250E-01  0.00000000E+00  0.00000000E+00
  2.41713250E-01  0.00000000E+00  0.00000000E+00  2.41713250E-01  0.00000000E+00
  0.00000000E+00  2.41713250E-01  0.00000000E+00  0.00000000E+00  2.41713250E-01
  0.00000000E+00  0.00000000E+00  2.41713250E-01  0.00000000E+00  0.00000000E+00
  2.41713250E-01  0.00000000E+00  0.00000000E+00  2.41713250E-01  0.00000000E+00
  0.00000000E+00  2.41713250E-01  0.00000000E+00  0.00000000E+00  2.41713250E-01
  0.00000000E+00  0.00000000E+00  2.41713250E-01  0.00000000E+00  0.00000000E+00
  2.41713250E-01  0.00000000E+00  0.00000000E+00  2.41713250E-01  0.00000000E+00
  0.00000000E+00  2.41713250E-01  0.00000000E+00  0.00000000E+00  2.41713250E-01
  0.00000000E+00  1.77600426E+00 -5.63997583E-01  0.00000000E+00  1.77600426E+00
 -5.63997583E-01  0.00000000E+00  1.77600426E+00 -5.63997583E-01  0.00000000E+00
  1.77600426E+00 -5.63997583E-01  0.00000000E+00  1.77600426E+00 -5.63997583E-01
 -1.53806481E+00 -8.88002131E-01 -5.63997583E-01 -1.53806481E+00 -8.88002131E-01
 -5.63997583E-01 -1.53806481E+00 -8.88002131E-01 -5.63997583E-01 -1.53806481E+00
 -8.88002131E-01 -5.63997583E-01 -1.53806481E+00 -8.88002131E-01 -5.63997583E-01
  1.53806481E+00 -8.88002131E-01 -5.63997583E-01  1.53806481E+00 -8.88002131E-01
 -5.63997583E-01  1.53806481E+00 -8.88002131E-01 -5.63997583E-01  1.53806481E+00
 -8.88002131E-01 -5.63997583E-01  1.53806481E+00 -8.88002131E-01 -5.63997583E-01
Constraint Structure                       R   N=          12
  0.00000000E+00 -0.00000000E+00  2.25306189E-01  0.00000000E+00  1.77101279E+00
 -5.25714440E-01 -1.53374206E+00 -8.85506393E-01 -5.25714440E-01  1.53374206E+00
 -8.85506393E-01 -5.25714440E-01
Num ILSW                                   I              100
ILSW                                       I   N=         100
           0           0           0           0           2           0
           0           0           0           0         404          -1
           5           0           0           0           2           0
           0           0           0           0           1           0
           1           0           0           0           0           0
           0           0      100000           0          -1           0
           0           0           0           0           0           0
           0           0           0           1           0           0
           0           0           1           0           0           0
           0           0           4          41           0           0
           0           0           0           0           0           0
           0           0           0           4           0           0
           0           0           0           0           0           0
           0           0           0           0           0           0
           0           0           0           0           0           0
           0           0           0           0           0           0
           0           0           0           0
Num RLSW                                   I               41
RLSW                                       R   N=          41
  1.00000000E+00  1.00000000E+00  1.00000000E+00  1.00000000E+00  0.00000000E+00
  0.00000000E+00  0.00000000E+00  1.00000000E+00  0.00000000E+00  0.00000000E+00
  0.00000000E+00  0.00000000E+00  1.00000000E+00  0.00000000E+00  0.00000000E+00
  0.00000000E+00  0.00000000E+00  1.00000000E+00  0.00000000E+00  0.00000000E+00
  0.00000000E+00  0.00000000E+00  1.00000000E+00  0.00000000E+00  0.00000000E+00
  0.00000000E+00  0.00000000E+00  1.00000000E+00  0.00000000E+00  0.00000000E+00
  0.00000000E+00  0.00000000E+00  1.00000000E+00  0.00000000E+00  0.00000000E+00
  0.00000000E+00  0.00000000E+00  0.00000000E+00  1.00000000E+00  1.00000000E+00
  0.00000000E+00
ECP-MxAtEC                                 I           250000
ECP-MaxLECP                                I               10
ECP-MaxAtL                                 I          2250000
ECP-MxTECP                                 I         11250000
ECP-LenNCZ                                 I                0
ECP-KFirst                                 I   N=          40
           0           0           0           0           0           0
           0           0           0           0           0           0
           0           0           0           0           0           0
           0           0           0           0           0           0
           0           0           0           0           0           0
           0           0           0           0           0           0
           0           0           0           0
ECP-KLast                                  I   N=          40
           0           0           0           0           0           0
           0           0           0           0           0           0
           0           0           0           0           0           0
           0           0           0           0           0           0
           0           0           0           0           0           0
           0           0           0           0           0           0
           0           0           0           0
ECP-LMax                                   I   N=           4
           0           0           0           0
ECP-LPSkip                                 I   N=           4
           1           1           1           1
ECP-RNFroz                                 R   N=           4
  0.00000000E+00  0.00000000E+00  0.00000000E+00  0.00000000E+00
ECP-NLP                                    I                0
ECP-CLP1                                   R      0.000000000000000E+00
ECP-CLP2                                   R      0.000000000000000E+00
ECP-ZLP                                    R      0.000000000000000E+00
MxBond                                     I                3
NBond                                      I   N=           4
           3           1           1           1
IBond                                      I   N=          12
           2           3           4           1           0           0
           1           0           0           1           0           0
RBond                                      R   N=          12
  1.00000000E+00  1.00000000E+00  1.00000000E+00  1.00000000E+00  0.00000000E+00
  0.00000000E+00  1.00000000E+00  0.00000000E+00  0.00000000E+00  1.00000000E+00
  0.00000000E+00  0.00000000E+00
Virial Ratio                               R      2.011264916203016E+00
SCF Energy                                 R     -5.650907292647048E+01
Total Energy                               R     -5.650907292647048E+01
RMS Force                                  R      6.573128531315771E-05
RMS Density                                R      8.836502493077418E-09
Job Status                                 I                1
Nuclear derivative order                   I                1
External E-field                           R   N=          35
  0.00000000E+00  0.00000000E+00  0.00000000E+00  0.00000000E+00  0.00000000E+00
  0.00000000E+00  0.00000000E+00  0.00000000E+00  0.00000000E+00  0.00000000E+00
  0.00000000E+00  0.00000000E+00  0.00000000E+00  0.00000000E+00  0.00000000E+00
  0.00000000E+00  0.00000000E+00  0.00000000E+00  0.00000000E+00  0.00000000E+00
  0.00000000E+00  0.00000000E+00  0.00000000E+00  0.00000000E+00  0.00000000E+00
  0.00000000E+00  0.00000000E+00  0.00000000E+00  0.00000000E+00  0.00000000E+00
  0.00000000E+00  0.00000000E+00  0.00000000E+00  0.00000000E+00  0.00000000E+00
IOpCl                                      I                0
IROHF                                      I                0
Alpha Orbital Energies                     R   N=          29
 -1.39893268E+01 -7.57776218E-01 -3.98431383E-01 -3.98431383E-01 -2.09520418E-01
  3.50227678E-02  1.16070539E-01  1.16070539E-01  4.71536304E-01  4.71536304E-01
  5.96093361E-01  6.90799198E-01  7.86837718E-01  7.86837718E-01  8.86778269E-01
  1.13229683E+00  1.13229683E+00  1.54063675E+00  1.58919435E+00  1.73216429E+00
  1.73216429E+00  1.98608481E+00  1.98608481E+00  2.38157736E+00  2.69549344E+00
  2.69549344E+00  2.74833593E+00  3.23250438E+00  3.23250438E+00
Alpha MO coefficients                      R   N=         841
  9.88239106E-01 -4.46996752E-02  1.83065903E-02  0.00000000E+00 -2.89865415E-19
 -3.93606417E-03  0.00000000E+00 -5.31173223E-17 -4.96316141E-04  1.26568786E-03
  0.00000000E+00 -9.55357432E-18 -1.30865918E-16  0.00000000E+00  3.31377532E-03
 -2.92516265E-03  0.00000000E+00 -3.32286290E-03  1.50032304E-03  3.31377532E-03
 -2.92516265E-03  2.87768369E-03  1.66143145E-03  1.50032304E-03  3.31377532E-03
 -2.92516265E-03 -2.87768369E-03  1.66143145E-03  1.50032304E-03  2.58867705E-01
  5.19308613E-01  1.72905686E-01  0.00000000E+00 -2.46970541E-16  1.18467767E-01
  0.00000000E+00 -2.24102470E-15 -8.33759290E-03 -1.53026871E-03  0.00000000E+00
  1.09326879E-16 -9.77312882E-17  0.00000000E+00  1.93599391E-01  2.46803850E-02
  0.00000000E+00 -2.59729099E-02  4.02279953E-03  1.93599391E-01  2.46803850E-02
  2.24931998E-02  1.29864549E-02  4.02279953E-03  1.93599391E-01  2.46803850E-02
 -2.24931998E-02  1.29864549E-02  4.02279953E-03  0.00000000E+00  0.00000000E+00
  0.00000000E+00  4.66600512E-01  0.00000000E+00  0.00000000E+00 -1.94798761E-01
  0.00000000E+00  0.00000000E+00  0.00000000E+00  2.19480433E-02  0.00000000E+00
  0.00000000E+00  9.04293850E-03  0.00000000E+00  0.00000000E+00 -2.19061445E-02
  0.00000000E+00  0.00000000E+00  3.24043970E-01  1.34796146E-01  5.70949800E-03
  1.59438986E-02  9.45715124E-03 -3.24043970E-01 -1.34796146E-01  5.70949800E-03
 -1.59438986E-02 -9.45715124E-03 -1.47131819E-16 -1.77752351E-16 -3.87283967E-15
  0.00000000E+00  4.66600512E-01  1.34823540E-15  0.00000000E+00 -1.94798761E-01
  3.65542466E-16  5.26363345E-16  0.00000000E+00  2.19480433E-02  9.04293850E-03
  0.00000000E+00 -3.74173746E-01 -1.55649182E-01  0.00000000E+00  1.49147122E-02
 -1.09201776E-02  1.87086873E-01  7.78245910E-02  1.59438986E-02 -1.27009303E-02
  5.46008882E-03  1.87086873E-01  7.78245910E-02 -1.59438986E-02 -1.27009303E-02
  5.46008882E-03 -1.05746329E-01 -2.15786863E-01 -3.45517538E-01  0.00000000E+00
 -5.91118306E-16  5.36795398E-01  0.00000000E+00 -6.50909630E-16 -4.29798623E-01
  2.21279532E-02  0.00000000E+00  1.29523563E-16 -5.51460387E-17  0.00000000E+00
  9.34229014E-02  6.23604565E-02  0.00000000E+00 -9.36252427E-03 -2.25175235E-02
  9.34229014E-02  6.23604565E-02  8.10818386E-03  4.68126213E-03 -2.25175235E-02
  9.34229014E-02  6.23604565E-02 -8.10818386E-03  4.68126213E-03 -2.25175235E-02
  1.31844615E-01  2.42822647E-01  1.37896274E+00  0.00000000E+00 -3.15688965E-15
  2.10566472E-01  0.00000000E+00  1.00433162E-14 -3.49796999E-01  6.08028250E-03
  0.00000000E+00 -2.36294138E-16 -1.22602691E-16  0.00000000E+00 -9.22468261E-02
 -7.43507856E-01  0.00000000E+00 -1.04347488E-02  2.42819166E-03 -9.22468261E-02
 -7.43507856E-01  9.03675759E-03  5.21737442E-03  2.42819166E-03 -9.22468261E-02
 -7.43507856E-01 -9.03675759E-03  5.21737442E-03  2.42819166E-03  0.00000000E+00
  0.00000000E+00  0.00000000E+00 -4.11555004E-01  0.00000000E+00  0.00000000E+00
  7.62990135E-01  0.00000000E+00  0.00000000E+00  0.00000000E+00 -7.05605087E-03
  0.00000000E+00  0.00000000E+00  9.18234700E-03  0.00000000E+00  0.00000000E+00
  8.55800433E-03  0.00000000E+00  0.00000000E+00  1.35537125E-01  1.30849037E+00
 -6.03812690E-03 -8.42708029E-03 -8.29333469E-03 -1.35537125E-01 -1.30849037E+00
 -6.03812690E-03  8.42708029E-03  8.29333469E-03  8.96545885E-16  1.56696482E-15
  7.66839721E-15  0.00000000E+00  4.11555004E-01  1.72205450E-15  0.00000000E+00
 -7.62990135E-01  4.85593905E-16 -4.21989747E-16  0.00000000E+00  7.05605087E-03
 -9.18234700E-03  0.00000000E+00  1.56504791E-01  1.51091453E+00  0.00000000E+00
  1.09035040E-02 -9.57631804E-03 -7.82523957E-02 -7.55457266E-01  8.42708029E-03
 -3.69262725E-03  4.78815902E-03 -7.82523957E-02 -7.55457266E-01 -8.42708029E-03
 -3.69262725E-03  4.78815902E-03  0.00000000E+00  0.00000000E+00  0.00000000E+00
 -1.35293797E-01  0.00000000E+00  0.00000000E+00  5.20119362E-01  0.00000000E+00
  0.00000000E+00  0.00000000E+00  6.63806231E-02  0.00000000E+00  0.00000000E+00
  9.12608648E-02  0.00000000E+00  0.00000000E+00  9.03822295E-02  0.00000000E+00
  0.00000000E+00  9.22585301E-01 -7.30026936E-01 -1.28672402E-02 -5.96111092E-02
 -4.26805406E-02 -9.22585301E-01  7.30026936E-01 -1.28672402E-02  5.96111092E-02
  4.26805406E-02  4.05336792E-15  2.51809886E-14 -5.21616411E-14  0.00000000E+00
  1.35293797E-01  4.61278053E-15  0.00000000E+00 -5.20119362E-01  1.16841287E-14
  4.27697498E-16  0.00000000E+00 -6.63806231E-02 -9.12608648E-02  0.00000000E+00
  1.06530974E+00 -8.42962496E-01  0.00000000E+00  4.72837301E-02 -4.92832432E-02
 -5.32654872E-01  4.21481248E-01  5.96111092E-02 -5.59657396E-02  2.46416216E-02
 -5.32654872E-01  4.21481248E-01 -5.96111092E-02 -5.59657396E-02  2.46416216E-02
 -1.74687160E-01 -8.09273330E-01  1.30323292E+00  0.00000000E+00 -3.28007379E-15
 -4.02741109E-01  0.00000000E+00 -1.57710019E-14 -3.14494491E-01 -7.48590206E-02
  0.00000000E+00 -7.03015509E-17 -4.03771871E-16  0.00000000E+00  5.79641011E-01
 -6.44664358E-01  0.00000000E+00  1.71633470E-01  2.98864910E-03  5.79641011E-01
 -6.44664358E-01 -1.48638945E-01 -8.58167350E-02  2.98864910E-03  5.79641011E-01
 -6.44664358E-01  1.48638945E-01 -8.58167350E-02  2.98864910E-03 -1.67706657E-01
 -8.42553826E-01  7.78819646E-01  0.00000000E+00 -1.21008620E-14  8.46437917E-01
  0.00000000E+00 -2.59207055E-14  9.60630241E-01 -4.66137243E-04  0.00000000E+00
  3.44441642E-16  8.15586653E-16  0.00000000E+00  1.70259985E-01 -1.23438592E-01
  0.00000000E+00 -1.20976019E-02  1.14137382E-02  1.70259985E-01 -1.23438592E-01
  1.04768306E-02  6.04880096E-03  1.14137382E-02  1.70259985E-01 -1.23438592E-01
 -1.04768306E-02  6.04880096E-03  1.14137382E-02  0.00000000E+00  0.00000000E+00
  0.00000000E+00  8.93459513E-01  0.00000000E+00  0.00000000E+00  1.73658689E+00
  0.00000000E+00  0.00000000E+00  0.00000000E+00 -3.47250627E-02  0.00000000E+00
  0.00000000E+00 -3.77412279E-02  0.00000000E+00  0.00000000E+00  6.53097876E-03
  0.00000000E+00  0.00000000E+00  5.25202681E-02  1.09351600E+00  1.50989001E-01
  8.34028780E-02  8.39725112E-02 -5.25202681E-02 -1.09351600E+00  1.50989001E-01
 -8.34028780E-02 -8.39725112E-02 -7.23967162E-15 -4.64421158E-14  9.07033811E-14
  0.00000000E+00  8.93459513E-01  6.23004733E-15  0.00000000E+00  1.73658689E+00
 -7.77016777E-15  5.83790633E-16  0.00000000E+00 -3.47250627E-02 -3.77412279E-02
  0.00000000E+00 -6.06451818E-02 -1.26268351E+00  0.00000000E+00  1.99141675E-01
 -9.69631039E-02  3.03225909E-02  6.31341756E-01  8.34028780E-02  5.46836528E-02
  4.84815519E-02  3.03225909E-02  6.31341756E-01 -8.34028780E-02  5.46836528E-02
  4.84815519E-02 -1.83447564E-01 -1.51090868E+00  3.60320400E+00  0.00000000E+00
 -1.47547122E-14 -2.43944902E-01  0.00000000E+00 -4.10309248E-14 -9.18279692E-01
  9.90559259E-02  0.00000000E+00 -1.18897165E-15 -3.14242464E-16  0.00000000E+00
 -6.51013476E-01 -5.56179769E-01  0.00000000E+00 -8.54225903E-03 -1.65320780E-01
 -6.51013476E-01 -5.56179769E-01  7.39781333E-03  4.27112952E-03 -1.65320780E-01
 -6.51013476E-01 -5.56179769E-01 -7.39781333E-03  4.27112952E-03 -1.65320780E-01
  0.00000000E+00  0.00000000E+00  0.00000000E+00  1.72924901E-02  0.00000000E+00
  0.00000000E+00 -3.38444235E-01  0.00000000E+00  0.00000000E+00  0.00000000E+00
 -1.96706327E-01  0.00000000E+00  0.00000000E+00  1.61701853E-01  0.00000000E+00
  0.00000000E+00  4.90666088E-01  0.00000000E+00  0.00000000E+00 -1.38646834E-01
 -5.13770851E-02 -4.00699136E-02 -3.06420573E-01  3.86001642E-01  1.38646834E-01
  5.13770851E-02 -4.00699136E-02  3.06420573E-01 -3.86001642E-01 -1.37168433E-15
 -8.24450802E-15  1.30883631E-14  0.00000000E+00 -1.72924901E-02  3.73442118E-16
  0.00000000E+00  3.38444235E-01 -2.06769080E-15  9.46133770E-17  0.00000000E+00
  1.96706327E-01 -1.61701853E-01  0.00000000E+00 -1.60095573E-01 -5.93251478E-02
  0.00000000E+00  2.16981914E-01  4.45716304E-01  8.00477867E-02  2.96625739E-02
  3.06420573E-01 -3.13754087E-01 -2.22858152E-01  8.00477867E-02  2.96625739E-02
 -3.06420573E-01 -3.13754087E-01 -2.22858152E-01  0.00000000E+00  0.00000000E+00
  0.00000000E+00  1.78281246E-15  0.00000000E+00  0.00000000E+00 -5.26232008E-15
  0.00000000E+00  0.00000000E+00  0.00000000E+00  2.56218183E-15  0.00000000E+00
  0.00000000E+00  3.92216532E-15  0.00000000E+00  0.00000000E+00  6.11529658E-01
  0.00000000E+00  0.00000000E+00 -3.68760645E-15  1.49558955E-16 -3.05764829E-01
  5.29600219E-01 -6.65199132E-15  3.68760645E-15 -1.49558955E-16 -3.05764829E-01
 -5.29600219E-01  6.65199132E-15 -9.20885321E-02 -8.63777355E-01  1.81195541E+00
  0.00000000E+00 -1.44871955E-16 -1.00943071E-01  0.00000000E+00 -1.17741703E-14
 -1.06021967E+00 -3.05890316E-01  0.00000000E+00 -1.06110757E-15  1.53831242E-15
  0.00000000E+00 -5.34583568E-01 -1.94921849E-01  0.00000000E+00  7.04682435E-02
  5.19499770E-01 -5.34583568E-01 -1.94921849E-01 -6.10272890E-02 -3.52341218E-02
  5.19499770E-01 -5.34583568E-01 -1.94921849E-01  6.10272890E-02 -3.52341218E-02
  5.19499770E-01  0.00000000E+00  0.00000000E+00  0.00000000E+00  7.08025701E-03
  0.00000000E+00  0.00000000E+00  9.23959858E-01  0.00000000E+00  0.00000000E+00
  0.00000000E+00  9.96665905E-02  0.00000000E+00  0.00000000E+00 -5.42341035E-02
  0.00000000E+00  0.00000000E+00 -6.36928796E-01  0.00000000E+00  0.00000000E+00
  3.41648025E-01  1.55868049E-01 -3.83867614E-01  1.46104941E-01  5.30982295E-01
 -3.41648025E-01 -1.55868049E-01 -3.83867614E-01 -1.46104941E-01 -5.30982295E-01
  1.10795970E-15  5.62682522E-15 -1.23253612E-14  0.00000000E+00  7.08025701E-03
  2.34153810E-15  0.00000000E+00  9.23959858E-01 -1.52471393E-15 -2.81639008E-15
  0.00000000E+00  9.96665905E-02 -5.42341035E-02  0.00000000E+00 -3.94501159E-01
 -1.79980920E-01  0.00000000E+00 -2.99513887E-01 -6.13125542E-01  1.97250579E-01
  8.99904600E-02  1.46104941E-01 -5.52575069E-01  3.06562771E-01  1.97250579E-01