 Ammonia DF-PBE/def2-SVP
GAUSSIAN              5 MOL ORBITALS     46 PRIMITIVES        4 NUCLEI
  N    1    (CENTRE  1)   0.00000000 -0.00000000  0.24214865  CHARGE =  7.0
  H    2    (CENTRE  2)   0.00000000  1.77314758 -0.56501351  CHARGE =  1.0
  H    3    (CENTRE  3)  -1.53559085 -0.88657379 -0.56501351  CHARGE =  1.0
  H    4    (CENTRE  4)   1.53559085 -0.88657379 -0.56501351  CHARGE =  1.0
CENTRE ASSIGNMENTS    1  1  1  1  1  1  1  1  1  1  1  1  1  1  1  1  1  1  1  1
CENTRE ASSIGNMENTS    1  1  1  1  1  2  2  2  2  2  2  2  3  3  3  3  3  3  3  4
CENTRE ASSIGNMENTS    4  4  4  4  4  4
TYPE ASSIGNMENTS      1  1  1  1  1  1  1  2  2  2  3  3  3  4  4  4  2  3  4  5
TYPE ASSIGNMENTS      6  7  8  9 10  1  1  1  1  2  3  4  1  1  1  1  2  3  4  1
TYPE ASSIGNMENTS      1  1  1  2  3  4
EXPONENTS  0.1712842D+04 0.2576481D+03 0.5845825D+02 0.1619837D+02 0.5005260D+01
EXPONENTS  0.5873186D+00 0.1876459D+00 0.1357147D+02 0.2925737D+01 0.7992775D+00
EXPONENTS  0.1357147D+02 0.2925737D+01 0.7992775D+00 0.1357147D+02 0.2925737D+01
EXPONENTS  0.7992775D+00 0.2195435D+00 0.2195435D+00 0.2195435D+00 0.1000000D+01
EXPONENTS  0.1000000D+01 0.1000000D+01 0.1000000D+01 0.1000000D+01 0.1000000D+01
EXPONENTS  0.1301070D+02 0.1962257D+01 0.4445380D+00 0.1219496D+00 0.8000000D+00
EXPONENTS  0.8000000D+00 0.8000000D+00 0.1301070D+02 0.1962257D+01 0.4445380D+00
EXPONENTS  0.1219496D+00 0.8000000D+00 0.8000000D+00 0.8000000D+00 0.1301070D+02
EXPONENTS  0.1962257D+01 0.4445380D+00 0.1219496D+00 0.8000000D+00 0.8000000D+00
EXPONENTS  0.8000000D+00
MO    1     MO 0.0        OCC NO =    2.0000000  ORB. ENERGY =  -13.968832
 -0.10214254D+01 -0.18398588D+01 -0.26964816D+01 -0.26635129D+01 -0.10513964D+01
 -0.21714197D-01  0.37789528D-02 -0.00000000D+00 -0.00000000D+00 -0.00000000D+00
 -0.36073183D-14 -0.28836761D-14 -0.13396705D-14  0.88186138D-02  0.70495653D-02
  0.32750193D-02  0.00000000D+00  0.14551467D-15 -0.10474364D-03 -0.10693763D-02
 -0.10693763D-02  0.21387526D-02  0.00000000D+00  0.00000000D+00 -0.14909571D-14
  0.55707142D-03  0.94503800D-03  0.10758760D-02 -0.43751837D-03  0.00000000D+00
 -0.36821167D-02  0.16695396D-02  0.55707142D-03  0.94503800D-03  0.10758760D-02
 -0.43751837D-03  0.31888066D-02  0.18410584D-02  0.16695396D-02  0.55707142D-03
  0.94503800D-03  0.10758760D-02 -0.43751837D-03 -0.31888066D-02  0.18410584D-02
  0.16695396D-02
MO    2     MO 0.0        OCC NO =    2.0000000  ORB. ENERGY =   -0.754602
 -0.26754891D+00 -0.48192674D+00 -0.70630780D+00 -0.69767209D+00 -0.27539942D+00
  0.24774175D+00  0.34596178D-01 -0.00000000D+00 -0.00000000D+00 -0.00000000D+00
  0.22413186D-14  0.17917013D-14  0.83237137D-15 -0.25869441D+00 -0.20679929D+00
 -0.96072829D-01  0.00000000D+00 -0.78090898D-15 -0.16471663D-02  0.11139111D-02
  0.11139111D-02 -0.22278221D-02  0.00000000D+00  0.00000000D+00  0.45534657D-14
  0.31784848D-01  0.53921074D-01  0.61386305D-01  0.37048558D-02  0.00000000D+00
 -0.28866253D-01  0.46176195D-02  0.31784848D-01  0.53921074D-01  0.61386305D-01
  0.37048558D-02  0.24998909D-01  0.14433127D-01  0.46176195D-02  0.31784848D-01
  0.53921074D-01  0.61386305D-01  0.37048558D-02 -0.24998909D-01  0.14433127D-01
  0.46176195D-02
MO    3     MO 0.0        OCC NO =    2.0000000  ORB. ENERGY =   -0.394817
  0.52341512D-15  0.94280984D-15  0.13817742D-14  0.13648799D-14  0.53877335D-15
 -0.24717919D-15  0.19372757D-14 -0.00000000D+00 -0.00000000D+00 -0.00000000D+00
 -0.10193204D+01 -0.81484071D+00 -0.37855086D+00 -0.21624306D-14 -0.17286386D-14
 -0.80307429D-15  0.00000000D+00 -0.41134020D-01 -0.54773250D-15  0.11949060D-01
 -0.11949060D-01 -0.17002840D-14  0.00000000D+00  0.00000000D+00  0.61360837D-01
 -0.61172040D-01 -0.10377467D+00 -0.11814200D+00 -0.23484044D-01  0.00000000D+00
  0.17705029D-01 -0.12604886D-01  0.30586020D-01  0.51887335D-01  0.59071000D-01
  0.11742022D-01  0.18005455D-01 -0.13481335D-01  0.63024430D-02  0.30586020D-01
  0.51887335D-01  0.59071000D-01  0.11742022D-01 -0.18005455D-01 -0.13481335D-01
  0.63024430D-02
MO    4     MO 0.0        OCC NO =    2.0000000  ORB. ENERGY =   -0.394817
 -0.00000000D+00 -0.00000000D+00 -0.00000000D+00 -0.00000000D+00 -0.00000000D+00
  0.00000000D+00  0.00000000D+00 -0.10193204D+01 -0.81484071D+00 -0.37855086D+00
 -0.00000000D+00 -0.00000000D+00 -0.00000000D+00 -0.00000000D+00 -0.00000000D+00
 -0.00000000D+00 -0.41134020D-01  0.00000000D+00  0.00000000D+00  0.00000000D+00
  0.00000000D+00  0.00000000D+00  0.23898121D-01  0.61360837D-01  0.00000000D+00
  0.00000000D+00  0.00000000D+00  0.00000000D+00  0.00000000D+00 -0.23876789D-01
  0.00000000D+00  0.00000000D+00  0.52976541D-01  0.89871500D-01  0.10231397D+00
  0.20337778D-01  0.73095741D-02  0.18005455D-01  0.10916152D-01 -0.52976541D-01
 -0.89871500D-01 -0.10231397D+00 -0.20337778D-01  0.73095741D-02 -0.18005455D-01
 -0.10916152D-01
MO    5     MO 0.0        OCC NO =    2.0000000  ORB. ENERGY =   -0.205525
  0.10981163D+00  0.19779996D+00  0.28989396D+00  0.28634956D+00  0.11303376D+00
 -0.10340554D+00 -0.71392072D-01 -0.00000000D+00 -0.00000000D+00 -0.00000000D+00
 -0.36866505D-14 -0.29470939D-14 -0.13691326D-14 -0.11725962D+01 -0.93736880D+00
 -0.43547379D+00  0.00000000D+00  0.37159599D-17 -0.91572774D-01 -0.18513649D-01
 -0.18513649D-01  0.37027299D-01  0.00000000D+00  0.00000000D+00  0.16839045D-14
  0.15314395D-01  0.25979946D-01  0.29576801D-01  0.94735636D-02  0.00000000D+00
 -0.10807115D-01 -0.24268727D-01  0.15314395D-01  0.25979946D-01  0.29576801D-01
  0.94735636D-02  0.93592364D-02  0.54035577D-02 -0.24268727D-01  0.15314395D-01
  0.25979946D-01  0.29576801D-01  0.94735636D-02 -0.93592364D-02  0.54035577D-02
 -0.24268727D-01
END DATA
 TOTAL ENERGY =        0.000000000000 THE VIRIAL(-V/T)=   1.00000000
