Ammonia DF-PBE/def2-SVP                                                 
FOpt      RPBEPBE                                                     def2SVP/W06         
Number of atoms                            I                4
Info1-9                                    I   N=           9
          19          18           0           0           0         111
           2          18         902
Full Title                                 C   N=           2
Ammonia DF-PBE/def2-SVP 
Route                                      C   N=          13
#P PBEPBE/def2SVP/W06 DenFit opt(MaxCycle=100) scf(xqc,MaxCo
nventionalCycle=500) int(ultrafinegrid) gfinput gfoldprint i
op(6/7=3) symmetry(loose)           
Charge                                     I                0
Multiplicity                               I                1
Number of electrons                        I               10
Number of alpha electrons                  I                5
Number of beta electrons                   I                5
Number of basis functions                  I               29
Number of independent functions            I               29
Number of point charges in /Mol/           I                0
Number of translation vectors              I                0
Atomic numbers                             I   N=           4
           7           1           1           1
Nuclear charges                            R   N=           4
  7.00000000E+00  1.00000000E+00  1.00000000E+00  1.00000000E+00
Current cartesian coordinates              R   N=          12
  0.00000000E+00 -0.00000000E+00  2.42148643E-01  0.00000000E+00  1.77314759E+00
 -5.65013500E-01 -1.53559085E+00 -8.86573793E-01 -5.65013500E-01  1.53559085E+00
 -8.86573793E-01 -5.65013500E-01
Number of symbols in /Mol/                 I                0
Redundant internal dimensions              I   N=           4
           7           3           3           1
Redundant internal coordinate indices      I   N=          28
           1           2           0           0           1           3
           0           0           1           4           0           0
           2           1           3           0           2           1
           4           0           3           1           4           0
           2           1           4           3
Redundant internal coordinates             R   N=           7
  1.94822049E+00  1.94822049E+00  1.94822049E+00  1.81576309E+00  1.81576309E+00
  1.81576309E+00 -1.89670946E+00
ZRed-IntVec                                I   N=           7
           0           0           0           0           0           0
           0
ZRed-FPVec                                 R   N=           7
  0.00000000E+00  0.00000000E+00  0.00000000E+00  0.00000000E+00  0.00000000E+00
  0.00000000E+00  0.00000000E+00
ZRed-Constraint1                           R   N=           7
  1.92367312E+00  1.92367312E+00  1.92367312E+00  1.84561291E+00  1.84561291E+00
  1.84561291E+00 -1.95243253E+00
ZRed-Constraint2                           R   N=           7
  0.00000000E+00  0.00000000E+00  0.00000000E+00  0.00000000E+00  0.00000000E+00
  0.00000000E+00  0.00000000E+00
Force Field                                I                0
Atom Types                                 C   N=           4
                                                
Int Atom Types                             I   N=           4
           0           0           0           0
MM charges                                 R   N=           4
  0.00000000E+00  0.00000000E+00  0.00000000E+00  0.00000000E+00
Integer atomic weights                     I   N=           4
          14           1           1           1
Real atomic weights                        R   N=           4
  1.40030740E+01  1.00782504E+00  1.00782504E+00  1.00782504E+00
Atom fragment info                         I   N=           4
           0           0           0           0
Atom residue num                           I   N=           4
           0           0           0           0
Nuclear spins                              I   N=           4
           2           1           1           1
Nuclear ZEff                               R   N=           4
 -4.55000000E+00 -1.00000000E+00 -1.00000000E+00 -1.00000000E+00
Nuclear ZNuc                               R   N=           4
  7.00000000E+00  1.00000000E+00  1.00000000E+00  1.00000000E+00
Nuclear QMom                               R   N=           4
  2.04400000E+00  0.00000000E+00  0.00000000E+00  0.00000000E+00
Nuclear GFac                               R   N=           4
  4.03761000E-01  2.79284600E+00  2.79284600E+00  2.79284600E+00
MicOpt                                     I   N=           4
          -1          -1          -1          -1
Number of residues                         I                0
Number of secondary structures             I                0
SymInf integers                            I   N=          26
           2           2           1           1           1          -1
           1           1           0           0           0           0
           0           0           0           0           0           0
           0           0           0           0           0           0
           0           0
RotTr to input orientation                 R   N=          12
  3.34104411E-10 -1.00000000E+00  0.00000000E+00 -1.00000000E+00 -3.34104411E-10
  0.00000000E+00  0.00000000E+00  0.00000000E+00 -1.00000000E+00 -1.88972460E-10
  3.55271368E-16  6.66438244E-02
Number of contracted shells                I               15
Number of primitive shells                 I               27
Pure/Cartesian d shells                    I                0
Pure/Cartesian f shells                    I                0
Highest angular momentum                   I                2
Largest degree of contraction              I                5
Shell types                                I   N=          15
           0           0           0           1           1          -2
           0           0           1           0           0           1
           0           0           1
Number of primitives per shell             I   N=          15
           5           1           1           3           1           1
           3           1           1           3           1           1
           3           1           1
Shell to atom map                          I   N=          15
           1           1           1           1           1           1
           2           2           2           3           3           3
           4           4           4
Primitive exponents                        R   N=          27
  1.71284159E+03  2.57648127E+02  5.84582459E+01  1.61983679E+01  5.00526008E+00
  5.87318566E-01  1.87645923E-01  1.35714702E+01  2.92573729E+00  7.99277508E-01
  2.19543480E-01  1.00000000E+00  1.30107010E+01  1.96225720E+00  4.44537960E-01
  1.21949620E-01  8.00000000E-01  1.30107010E+01  1.96225720E+00  4.44537960E-01
  1.21949620E-01  8.00000000E-01  1.30107010E+01  1.96225720E+00  4.44537960E-01
  1.21949620E-01  8.00000000E-01
Contraction coefficients                   R   N=          27
 -5.44779958E-03 -4.06271746E-02 -1.81119623E-01 -4.68439756E-01 -4.46168463E-01
  1.00000000E+00  1.00000000E+00 -5.88481170E-02 -3.20246248E-01 -7.53282265E-01
  1.00000000E+00  1.00000000E+00  3.34854848E-02  2.34721871E-01  8.13770285E-01
  1.00000000E+00  1.00000000E+00  3.34854848E-02  2.34721871E-01  8.13770285E-01
  1.00000000E+00  1.00000000E+00  3.34854848E-02  2.34721871E-01  8.13770285E-01
  1.00000000E+00  1.00000000E+00
Coordinates of each shell                  R   N=          45
  0.00000000E+00  0.00000000E+00  2.42148643E-01  0.00000000E+00  0.00000000E+00
  2.42148643E-01  0.00000000E+00  0.00000000E+00  2.42148643E-01  0.00000000E+00
  0.00000000E+00  2.42148643E-01  0.00000000E+00  0.00000000E+00  2.42148643E-01
  0.00000000E+00  0.00000000E+00  2.42148643E-01  0.00000000E+00  1.77314759E+00
 -5.65013500E-01  0.00000000E+00  1.77314759E+00 -5.65013500E-01  0.00000000E+00
  1.77314759E+00 -5.65013500E-01 -1.53559085E+00 -8.86573793E-01 -5.65013500E-01
 -1.53559085E+00 -8.86573793E-01 -5.65013500E-01 -1.53559085E+00 -8.86573793E-01
 -5.65013500E-01  1.53559085E+00 -8.86573793E-01 -5.65013500E-01  1.53559085E+00
 -8.86573793E-01 -5.65013500E-01  1.53559085E+00 -8.86573793E-01 -5.65013500E-01
Density Number of contracted shells        I               30
Density Number of primitive shells         I               48
Density Pure/Cartesian d shells            I                0
Density Pure/Cartesian f shells            I                0
Density Highest angular momentum           I                4
Density Largest degree of contraction      I                7
Density Shell types                        I   N=          30
           0           0           0           0           0           0
           1           1           1           1          -2          -2
          -2          -3          -4           0           0           0
           1          -2           0           0           0           1
          -2           0           0           0           1          -2
Density Number of primitives per shell     I   N=          30
           7           1           1           1           1           1
           2           1           1           1           2           1
           1           2           1           3           1           1
           2           1           3           1           1           2
           1           3           1           1           2           1
Density Shell to atom map                  I   N=          30
           1           1           1           1           1           1
           1           1           1           1           1           1
           1           1           1           2           2           2
           2           2           3           3           3           3
           3           4           4           4           4           4
Density Primitive exponents                R   N=          48
  2.54294018E+03  1.02954730E+03  4.24905355E+02  1.78457371E+02  7.61362742E+01
  3.29338653E+01  1.44155436E+01  6.37188910E+00  2.83817420E+00  1.27117930E+00
  5.71240700E-01  2.56988700E-01  1.78975990E+01  6.53463190E+00  2.35236450E+00
  8.39737700E-01  2.98933500E-01  7.69098700E+00  2.30449720E+00  8.40398700E-01
  3.30379700E-01  2.33310760E+00  8.44613700E-01  1.40377000E+00  1.56752927E+01
  3.60635780E+00  1.20800160E+00  4.72679400E-01  2.01810000E-01  2.02813650E+00
  5.35873000E-01  2.21651240E+00  1.56752927E+01  3.60635780E+00  1.20800160E+00
  4.72679400E-01  2.01810000E-01  2.02813650E+00  5.35873000E-01  2.21651240E+00
  1.56752927E+01  3.60635780E+00  1.20800160E+00  4.72679400E-01  2.01810000E-01
  2.02813650E+00  5.35873000E-01  2.21651240E+00
Density Contraction coefficients           R   N=          48
  1.57267989E-03  3.97704448E-03  1.95376611E-02  7.47626441E-02  2.18976743E-01
  4.21671880E-01  2.96402909E-01 -1.00000000E+00  1.00000000E+00  1.00000000E+00
  1.00000000E+00  1.00000000E+00 -1.19813247E+00  2.49356462E-01  1.00000000E+00
  1.00000000E+00  1.00000000E+00  9.91894048E-02  9.12612482E-01  1.00000000E+00
  1.00000000E+00  4.52107608E-01  6.08156234E-01 -1.00000000E+00  3.26115897E-02
  2.29804684E-01  7.57208324E-01  1.00000000E+00  1.00000000E+00  3.61836199E-01
  7.03930309E-01  1.00000000E+00  3.26115897E-02  2.29804684E-01  7.57208324E-01
  1.00000000E+00  1.00000000E+00  3.61836199E-01  7.03930309E-01  1.00000000E+00
  3.26115897E-02  2.29804684E-01  7.57208324E-01  1.00000000E+00  1.00000000E+00
  3.61836199E-01  7.03930309E-01  1.00000000E+00
Density Coordinates of each shell          R   N=          90
  0.00000000E+00  0.00000000E+00  2.42148643E-01  0.00000000E+00  0.00000000E+00
  2.42148643E-01  0.00000000E+00  0.00000000E+00  2.42148643E-01  0.00000000E+00
  0.00000000E+00  2.42148643E-01  0.00000000E+00  0.00000000E+00  2.42148643E-01
  0.00000000E+00  0.00000000E+00  2.42148643E-01  0.00000000E+00  0.00000000E+00
  2.42148643E-01  0.00000000E+00  0.00000000E+00  2.42148643E-01  0.00000000E+00
  0.00000000E+00  2.42148643E-01  0.00000000E+00  0.00000000E+00  2.42148643E-01
  0.00000000E+00  0.00000000E+00  2.42148643E-01  0.00000000E+00  0.00000000E+00
  2.42148643E-01  0.00000000E+00  0.00000000E+00  2.42148643E-01  0.00000000E+00
  0.00000000E+00  2.42148643E-01  0.00000000E+00  0.00000000E+00  2.42148643E-01
  0.00000000E+00  1.77314759E+00 -5.65013500E-01  0.00000000E+00  1.77314759E+00
 -5.65013500E-01  0.00000000E+00  1.77314759E+00 -5.65013500E-01  0.00000000E+00
  1.77314759E+00 -5.65013500E-01  0.00000000E+00  1.77314759E+00 -5.65013500E-01
 -1.53559085E+00 -8.86573793E-01 -5.65013500E-01 -1.53559085E+00 -8.86573793E-01
 -5.65013500E-01 -1.53559085E+00 -8.86573793E-01 -5.65013500E-01 -1.53559085E+00
 -8.86573793E-01 -5.65013500E-01 -1.53559085E+00 -8.86573793E-01 -5.65013500E-01
  1.53559085E+00 -8.86573793E-01 -5.65013500E-01  1.53559085E+00 -8.86573793E-01
 -5.65013500E-01  1.53559085E+00 -8.86573793E-01 -5.65013500E-01  1.53559085E+00
 -8.86573793E-01 -5.65013500E-01  1.53559085E+00 -8.86573793E-01 -5.65013500E-01
Constraint Structure                       R   N=          12
  0.00000000E+00 -0.00000000E+00  2.25306189E-01  0.00000000E+00  1.77101279E+00
 -5.25714440E-01 -1.53374206E+00 -8.85506393E-01 -5.25714440E-01  1.53374206E+00
 -8.85506393E-01 -5.25714440E-01
Num ILSW                                   I              100
ILSW                                       I   N=         100
           0           0           0           0           2           0
           0           0           0           0        1009          -1
           5           0           0           0           2           0
           0           0           0           0           1           0
           1           0           0           0           0           0
           0           0      100000           0          -1           0
           0           0           0           0           0           0
           0           0           0           1           0           0
           0           0           1           0           0           0
           0           0           4          41           0           0
           0           0           0           0           0           0
           0           0           0           4           0           0
           0           0           0           0           0           0
           0           0           0           0           0           0
           0           0           0           0           0           0
           0           0           0           0           0           0
           0           0           0           0
Num RLSW                                   I               41
RLSW                                       R   N=          41
  1.00000000E+00  1.00000000E+00  1.00000000E+00  1.00000000E+00  0.00000000E+00
  0.00000000E+00  0.00000000E+00  1.00000000E+00  0.00000000E+00  0.00000000E+00
  0.00000000E+00  0.00000000E+00  1.00000000E+00  0.00000000E+00  0.00000000E+00
  0.00000000E+00  0.00000000E+00  1.00000000E+00  0.00000000E+00  0.00000000E+00
  0.00000000E+00  0.00000000E+00  1.00000000E+00  0.00000000E+00  0.00000000E+00
  0.00000000E+00  0.00000000E+00  1.00000000E+00  0.00000000E+00  0.00000000E+00
  0.00000000E+00  0.00000000E+00  1.00000000E+00  0.00000000E+00  0.00000000E+00
  0.00000000E+00  0.00000000E+00  0.00000000E+00  1.00000000E+00  1.00000000E+00
  0.00000000E+00
ECP-MxAtEC                                 I           250000
ECP-MaxLECP                                I               10
ECP-MaxAtL                                 I          2250000
ECP-MxTECP                                 I         11250000
ECP-LenNCZ                                 I                0
ECP-KFirst                                 I   N=          40
           0           0           0           0           0           0
           0           0           0           0           0           0
           0           0           0           0           0           0
           0           0           0           0           0           0
           0           0           0           0           0           0
           0           0           0           0           0           0
           0           0           0           0
ECP-KLast                                  I   N=          40
           0           0           0           0           0           0
           0           0           0           0           0           0
           0           0           0           0           0           0
           0           0           0           0           0           0
           0           0           0           0           0           0
           0           0           0           0           0           0
           0           0           0           0
ECP-LMax                                   I   N=           4
           0           0           0           0
ECP-LPSkip                                 I   N=           4
           1           1           1           1
ECP-RNFroz                                 R   N=           4
  0.00000000E+00  0.00000000E+00  0.00000000E+00  0.00000000E+00
ECP-NLP                                    I                0
ECP-CLP1                                   R      0.000000000000000E+00
ECP-CLP2                                   R      0.000000000000000E+00
ECP-ZLP                                    R      0.000000000000000E+00
MxBond                                     I                3
NBond                                      I   N=           4
           3           1           1           1
IBond                                      I   N=          12
           2           3           4           1           0           0
           1           0           0           1           0           0
RBond                                      R   N=          12
  1.00000000E+00  1.00000000E+00  1.00000000E+00  1.00000000E+00  0.00000000E+00
  0.00000000E+00  1.00000000E+00  0.00000000E+00  0.00000000E+00  1.00000000E+00
  0.00000000E+00  0.00000000E+00
Virial Ratio                               R      2.010037908394653E+00
SCF Energy                                 R     -5.643327333131877E+01
Total Energy                               R     -5.643327333131877E+01
RMS Force                                  R      6.409259618832844E-05
RMS Density                                R      8.011950874787351E-09
Job Status                                 I                1
Nuclear derivative order                   I                1
External E-field                           R   N=          35
  0.00000000E+00  0.00000000E+00  0.00000000E+00  0.00000000E+00  0.00000000E+00
  0.00000000E+00  0.00000000E+00  0.00000000E+00  0.00000000E+00  0.00000000E+00
  0.00000000E+00  0.00000000E+00  0.00000000E+00  0.00000000E+00  0.00000000E+00
  0.00000000E+00  0.00000000E+00  0.00000000E+00  0.00000000E+00  0.00000000E+00
  0.00000000E+00  0.00000000E+00  0.00000000E+00  0.00000000E+00  0.00000000E+00
  0.00000000E+00  0.00000000E+00  0.00000000E+00  0.00000000E+00  0.00000000E+00
  0.00000000E+00  0.00000000E+00  0.00000000E+00  0.00000000E+00  0.00000000E+00
IOpCl                                      I                0
IROHF                                      I                0
Alpha Orbital Energies                     R   N=          29
 -1.39688317E+01 -7.54602167E-01 -3.94816977E-01 -3.94816977E-01 -2.05524741E-01
  3.10757287E-02  1.13255920E-01  1.13255920E-01  4.71802997E-01  4.71802997E-01
  5.96365914E-01  6.98385414E-01  7.90932051E-01  7.90932051E-01  8.93478890E-01
  1.13489553E+00  1.13489553E+00  1.54707430E+00  1.59271348E+00  1.73736096E+00
  1.73736096E+00  1.99180441E+00  1.99180441E+00  2.39010026E+00  2.69911508E+00
  2.69911508E+00  2.75243351E+00  3.23790540E+00  3.23790540E+00
Alpha MO coefficients                      R   N=         841
  9.88069578E-01 -4.54128107E-02  1.85976051E-02  0.00000000E+00 -4.78638332E-16
 -4.03593381E-03  0.00000000E+00  4.96517263E-16 -4.88975252E-04  1.29942468E-03
  0.00000000E+00 -5.73094484E-16 -5.88623711E-16  0.00000000E+00  3.40736514E-03
 -2.97475264E-03  0.00000000E+00 -3.41424736E-03  1.54808265E-03  3.40736514E-03
 -2.97475264E-03  2.95682495E-03  1.70712368E-03  1.54808265E-03  3.40736514E-03
 -2.97475264E-03 -2.95682495E-03  1.70712368E-03  1.54808265E-03  2.58811799E-01
  5.18124131E-01  1.70260412E-01  0.00000000E+00  6.65586085E-16  1.18394289E-01
  0.00000000E+00 -1.30500658E-16 -7.68947506E-03 -1.35354002E-03  0.00000000E+00
  1.44172736E-16  3.08473381E-16  0.00000000E+00  1.94414179E-01  2.51898668E-02
  0.00000000E+00 -2.67662696E-02  4.28169338E-03  1.94414179E-01  2.51898668E-02
  2.31802694E-02  1.33831348E-02  4.28169338E-03  1.94414179E-01  2.51898668E-02
 -2.31802694E-02  1.33831348E-02  4.28169338E-03 -3.31954279E-16  1.01997378E-15
 -1.02070474E-14  0.00000000E+00  4.66502979E-01  4.73972339E-16  0.00000000E+00
 -1.92026155E-01  2.27970816E-15  2.31976371E-16  0.00000000E+00  2.15239109E-02
  8.38288812E-03  0.00000000E+00 -3.74162932E-01 -1.59671516E-01  0.00000000E+00
  1.64170099E-02 -1.16878962E-02  1.87081466E-01  7.98357580E-02  1.66955809E-02
 -1.25005844E-02  5.84394810E-03  1.87081466E-01  7.98357580E-02 -1.66955809E-02
 -1.25005844E-02  5.84394810E-03  0.00000000E+00  0.00000000E+00  0.00000000E+00
  4.66502979E-01  0.00000000E+00  0.00000000E+00 -1.92026155E-01  0.00000000E+00
  0.00000000E+00  0.00000000E+00  2.15239109E-02  0.00000000E+00  0.00000000E+00
  8.38288812E-03  0.00000000E+00  0.00000000E+00 -2.21397825E-02  0.00000000E+00
  0.00000000E+00  3.24034604E-01  1.38279589E-01  6.77781182E-03  1.66955809E-02
  1.01220150E-02 -3.24034604E-01 -1.38279589E-01  6.77781182E-03 -1.66955809E-02
 -1.01220150E-02 -1.06225611E-01 -2.16261105E-01 -3.51346426E-01  0.00000000E+00
 -7.40623435E-16  5.36651317E-01  0.00000000E+00 -4.08033182E-16 -4.27489649E-01
  2.24963765E-02  0.00000000E+00 -1.27707715E-16 -2.26389411E-16  0.00000000E+00
  9.36715350E-02  6.44121712E-02  0.00000000E+00 -1.00209111E-02 -2.25032076E-02
  9.36715350E-02  6.44121712E-02  8.67836354E-03  5.01045553E-03 -2.25032076E-02
  9.36715350E-02  6.44121712E-02 -8.67836354E-03  5.01045553E-03 -2.25032076E-02
  1.27804941E-01  2.20572893E-01  1.42543324E+00  0.00000000E+00 -7.98647235E-15
  2.06162651E-01  0.00000000E+00  2.29942982E-14 -3.60746717E-01  5.20815515E-03
  0.00000000E+00 -4.88702367E-16 -1.79742643E-17  0.00000000E+00 -8.68820798E-02
 -7.58150905E-01  0.00000000E+00 -6.20907255E-03  1.42534249E-03 -8.68820798E-02
 -7.58150905E-01  5.37721456E-03  3.10453628E-03  1.42534249E-03 -8.68820798E-02
 -7.58150905E-01 -5.37721456E-03  3.10453628E-03  1.42534249E-03  0.00000000E+00
  0.00000000E+00  0.00000000E+00 -4.03307377E-01  0.00000000E+00  0.00000000E+00
  7.69284761E-01  0.00000000E+00  0.00000000E+00  0.00000000E+00 -8.59671633E-03
  0.00000000E+00  0.00000000E+00  7.46570878E-03  0.00000000E+00  0.00000000E+00
  7.28262985E-03  0.00000000E+00  0.00000000E+00  1.20199153E-01  1.33303107E+00
 -2.95177999E-03 -5.90883928E-03 -6.13185804E-03 -1.20199153E-01 -1.33303107E+00
 -2.95177999E-03  5.90883928E-03  6.13185804E-03  3.32273779E-15  7.47884725E-15
  2.45296549E-14  0.00000000E+00  4.03307377E-01  4.81646253E-15  0.00000000E+00
 -7.69284761E-01 -3.11526380E-15 -2.80660339E-17  0.00000000E+00  8.59671633E-03
 -7.46570878E-03  0.00000000E+00  1.38794027E-01  1.53925170E+00  0.00000000E+00
  6.36324994E-03 -7.08045978E-03 -6.93970134E-02 -7.69625850E-01  5.90883928E-03
 -3.87115990E-03  3.54022989E-03 -6.93970134E-02 -7.69625850E-01 -5.90883928E-03
 -3.87115990E-03  3.54022989E-03  0.00000000E+00  0.00000000E+00  0.00000000E+00
 -1.51875533E-01  0.00000000E+00  0.00000000E+00  5.12668534E-01  0.00000000E+00
  0.00000000E+00  0.00000000E+00  6.72619218E-02  0.00000000E+00  0.00000000E+00
  9.24460867E-02  0.00000000E+00  0.00000000E+00  8.98310514E-02  0.00000000E+00
  0.00000000E+00  9.23952106E-01 -7.20222944E-01 -1.58887964E-02 -6.10373826E-02
 -4.43591127E-02 -9.23952106E-01  7.20222944E-01 -1.58887964E-02  6.10373826E-02
  4.43591127E-02 -1.54843800E-15 -7.54685021E-15  1.00143856E-14  0.00000000E+00
  1.51875533E-01 -6.93725251E-16  0.00000000E+00 -5.12668534E-01 -3.95355306E-16
  4.28238260E-17  0.00000000E+00 -6.72619218E-02 -9.24460867E-02  0.00000000E+00
  1.06688799E+00 -8.31641821E-01  0.00000000E+00  5.11287457E-02 -5.12214913E-02
 -5.33443997E-01  4.15820910E-01  6.10373826E-02 -5.45911022E-02  2.56107456E-02
 -5.33443997E-01  4.15820910E-01 -6.10373826E-02 -5.45911022E-02  2.56107456E-02
 -1.79786210E-01 -8.31788355E-01  1.31908987E+00  0.00000000E+00 -3.86528402E-15
 -3.99316479E-01  0.00000000E+00 -4.74737404E-15 -3.09711778E-01 -7.46939945E-02
  0.00000000E+00  7.42504331E-16  4.50684502E-16  0.00000000E+00  5.75663858E-01
 -6.37751793E-01  0.00000000E+00  1.73434126E-01  1.62982858E-03  5.75663858E-01
 -6.37751793E-01 -1.50198359E-01 -8.67170630E-02  1.62982858E-03  5.75663858E-01
 -6.37751793E-01  1.50198359E-01 -8.67170630E-02  1.62982858E-03 -1.67074968E-01
 -8.40073719E-01  7.72453551E-01  0.00000000E+00 -1.18125548E-14  8.48402038E-01
  0.00000000E+00 -1.90725641E-14  9.62664029E-01  4.47130564E-04  0.00000000E+00
  7.24007421E-16  3.09171906E-16  0.00000000E+00  1.64212611E-01 -1.17270537E-01
  0.00000000E+00 -1.36811159E-02  1.07662380E-02  1.64212611E-01 -1.17270537E-01
  1.18481939E-02  6.84055796E-03  1.07662380E-02  1.64212611E-01 -1.17270537E-01
 -1.18481939E-02  6.84055796E-03  1.07662380E-02 -7.55099828E-15 -5.29756858E-14
  1.16460421E-13  0.00000000E+00  8.93077031E-01  4.83669505E-15  0.00000000E+00
  1.73814236E+00 -1.64578719E-14  2.31790504E-15  0.00000000E+00 -3.45257919E-02
 -3.72511854E-02  0.00000000E+00 -7.29778414E-02 -1.24234472E+00  0.00000000E+00
  2.00030068E-01 -9.78465182E-02  3.64889207E-02  6.21172359E-01  8.36608107E-02
  5.51252933E-02  4.89232591E-02  3.64889207E-02  6.21172359E-01 -8.36608107E-02
  5.51252933E-02  4.89232591E-02  0.00000000E+00  0.00000000E+00  0.00000000E+00
  8.93077031E-01  0.00000000E+00  0.00000000E+00  1.73814236E+00  0.00000000E+00
  0.00000000E+00  0.00000000E+00 -3.45257919E-02  0.00000000E+00  0.00000000E+00
 -3.72511854E-02  0.00000000E+00  0.00000000E+00  6.82370167E-03  0.00000000E+00
  0.00000000E+00  6.32006645E-02  1.07590209E+00  1.51728476E-01  8.36608107E-02
  8.47375704E-02 -6.32006645E-02 -1.07590209E+00  1.51728476E-01 -8.36608107E-02
 -8.47375704E-02 -1.81720888E-01 -1.49884375E+00  3.58296650E+00  0.00000000E+00
 -2.27164242E-14 -2.43283527E-01  0.00000000E+00 -5.00071728E-14 -9.16583171E-01
  1.01240343E-01  0.00000000E+00 -2.76388444E-16  1.49294433E-15  0.00000000E+00
 -6.55472120E-01 -5.47497093E-01  0.00000000E+00 -1.01262451E-02 -1.67319542E-01
 -6.55472120E-01 -5.47497093E-01  8.76958550E-03  5.06312255E-03 -1.67319542E-01
 -6.55472120E-01 -5.47497093E-01 -8.76958550E-03  5.06312255E-03 -1.67319542E-01
  0.00000000E+00  0.00000000E+00  0.00000000E+00  1.80608499E-02  0.00000000E+00
  0.00000000E+00 -3.38980484E-01  0.00000000E+00  0.00000000E+00  0.00000000E+00
 -1.97299432E-01  0.00000000E+00  0.00000000E+00  1.62943705E-01  0.00000000E+00
  0.00000000E+00  4.91313863E-01  0.00000000E+00  0.00000000E+00 -1.38691934E-01
 -5.18237915E-02 -3.96456923E-02 -3.06549642E-01  3.84175224E-01  1.38691934E-01
  5.18237915E-02 -3.96456923E-02  3.06549642E-01 -3.84175224E-01 -1.15966843E-15
 -7.69836958E-15  1.44843090E-14  0.00000000E+00 -1.80608499E-02 -3.64817550E-15
  0.00000000E+00  3.38980484E-01 -2.14317516E-15  1.85775473E-15  0.00000000E+00
  1.97299432E-01 -1.62943705E-01  0.00000000E+00 -1.60147651E-01 -5.98409599E-02
  0.00000000E+00  2.16632211E-01  4.43607338E-01  8.00738253E-02  2.99204800E-02
  3.06549642E-01 -3.14327344E-01 -2.21803669E-01  8.00738253E-02  2.99204800E-02
 -3.06549642E-01 -3.14327344E-01 -2.21803669E-01  0.00000000E+00  0.00000000E+00
  0.00000000E+00  9.02444749E-17  0.00000000E+00  0.00000000E+00 -3.77509882E-15
  0.00000000E+00  0.00000000E+00  0.00000000E+00  1.89144816E-15  0.00000000E+00
  0.00000000E+00  3.32585371E-15  0.00000000E+00  0.00000000E+00  6.11890312E-01
  0.00000000E+00  0.00000000E+00 -2.62432471E-15  6.08795785E-17 -3.05945156E-01
  5.29912555E-01 -2.17504602E-15  2.62432471E-15 -6.08795785E-17 -3.05945156E-01
 -5.29912555E-01  2.17504602E-15 -9.23619786E-02 -8.69046834E-01  1.83548799E+00
  0.00000000E+00 -2.89606658E-15 -9.96434935E-02  0.00000000E+00  4.52064818E-15
 -1.06742697E+00 -3.07393309E-01  0.00000000E+00  2.14939864E-15 -2.60554869E-15
  0.00000000E+00 -5.41034427E-01 -1.98205763E-01  0.00000000E+00  7.17693498E-02
  5.17517374E-01 -5.41034427E-01 -1.98205763E-01 -6.21540802E-02 -3.58846749E-02
  5.17517374E-01 -5.41034427E-01 -1.98205763E-01  6.21540802E-02 -3.58846749E-02
  5.17517374E-01  0.00000000E+00  0.00000000E+00  0.00000000E+00  3.37092614E-03
  0.00000000E+00  0.00000000E+00  9.22333308E-01  0.00000000E+00  0.00000000E+00
  0.00000000E+00  9.96490589E-02  0.00000000E+00  0.00000000E+00 -5.41151856E-02
  0.00000000E+00  0.00000000E+00 -6.35655388E-01  0.00000000E+00  0.00000000E+00
  3.40902415E-01  1.57081611E-01 -3.83349320E-01  1.45668976E-01  5.33141052E-01
 -3.40902415E-01 -1.57081611E-01 -3.83349320E-01 -1.45668976E-01 -5.33141052E-01
  3.09786780E-15  1.82391685E-14 -1.06201297E-14  0.00000000E+00  3.37092614E-03
  6.26677923E-15  0.00000000E+00  9.22333308E-01  3.83104112E-15  1.03210455E-15
  0.00000000E+00  9.96490589E-02 -5.41151856E-02  0.00000000E+00 -3.93640202E-01
 -1.81382221E-01  0.00000000E+00 -2.99247297E-01 -6.15618259E-01  1.96820101E-01
  9.06911105E-02  1.45668976E-01 -5.51553365E-01  3.07809130E-01  1.96820101E-01