 Entering Gaussian System, Link 0=g09
 Input=ammonia.pbesvp.gjf
 Output=ammonia.pbesvp.log
 Initial command:
 /home/chemsoft/gaussian/g09e01/g09/l1.exe "/scr/martin/g09job.inter1516601093/Gau-10327.inp" -scrdir="/scr/martin/g09job.inter1516601093/"
 Entering Link 1 = /home/chemsoft/gaussian/g09e01/g09/l1.exe PID=     10328.
  
 Copyright (c) 1988,1990,1992,1993,1995,1998,2003,2009,2015,
            Gaussian, Inc.  All Rights Reserved.
  
 This is part of the Gaussian(R) 09 program.  It is based on
 the Gaussian(R) 03 system (copyright 2003, Gaussian, Inc.),
 the Gaussian(R) 98 system (copyright 1998, Gaussian, Inc.),
 the Gaussian(R) 94 system (copyright 1995, Gaussian, Inc.),
 the Gaussian 92(TM) system (copyright 1992, Gaussian, Inc.),
 the Gaussian 90(TM) system (copyright 1990, Gaussian, Inc.),
 the Gaussian 88(TM) system (copyright 1988, Gaussian, Inc.),
 the Gaussian 86(TM) system (copyright 1986, Carnegie Mellon
 University), and the Gaussian 82(TM) system (copyright 1983,
 Carnegie Mellon University). Gaussian is a federally registered
 trademark of Gaussian, Inc.
  
 This software contains proprietary and confidential information,
 including trade secrets, belonging to Gaussian, Inc.
  
 This software is provided under written license and may be
 used, copied, transmitted, or stored only in accord with that
 written license.
  
 The following legend is applicable only to US Government
 contracts under FAR:
  
                    RESTRICTED RIGHTS LEGEND
  
 Use, reproduction and disclosure by the US Government is
 subject to restrictions as set forth in subparagraphs (a)
 and (c) of the Commercial Computer Software - Restricted
 Rights clause in FAR 52.227-19.
  
 Gaussian, Inc.
 340 Quinnipiac St., Bldg. 40, Wallingford CT 06492
  
  
 ---------------------------------------------------------------
 Warning -- This program may not be used in any manner that
 competes with the business of Gaussian, Inc. or will provide
 assistance to any competitor of Gaussian, Inc.  The licensee
 of this program is prohibited from giving any competitor of
 Gaussian, Inc. access to this program.  By using this program,
 the user acknowledges that Gaussian, Inc. is engaged in the
 business of creating and licensing software in the field of
 computational chemistry and represents and warrants to the
 licensee that it is not a competitor of Gaussian, Inc. and that
 it will not use this program in any manner prohibited above.
 ---------------------------------------------------------------
  

 Cite this work as:
 Gaussian 09, Revision E.01,
 M. J. Frisch, G. W. Trucks, H. B. Schlegel, G. E. Scuseria, 
 M. A. Robb, J. R. Cheeseman, G. Scalmani, V. Barone, B. Mennucci, 
 G. A. Petersson, H. Nakatsuji, M. Caricato, X. Li, H. P. Hratchian, 
 A. F. Izmaylov, J. Bloino, G. Zheng, J. L. Sonnenberg, M. Hada, 
 M. Ehara, K. Toyota, R. Fukuda, J. Hasegawa, M. Ishida, T. Nakajima, 
 Y. Honda, O. Kitao, H. Nakai, T. Vreven, J. A. Montgomery, Jr., 
 J. E. Peralta, F. Ogliaro, M. Bearpark, J. J. Heyd, E. Brothers, 
 K. N. Kudin, V. N. Staroverov, T. Keith, R. Kobayashi, J. Normand, 
 K. Raghavachari, A. Rendell, J. C. Burant, S. S. Iyengar, J. Tomasi, 
 M. Cossi, N. Rega, J. M. Millam, M. Klene, J. E. Knox, J. B. Cross, 
 V. Bakken, C. Adamo, J. Jaramillo, R. Gomperts, R. E. Stratmann, 
 O. Yazyev, A. J. Austin, R. Cammi, C. Pomelli, J. W. Ochterski, 
 R. L. Martin, K. Morokuma, V. G. Zakrzewski, G. A. Voth, 
 P. Salvador, J. J. Dannenberg, S. Dapprich, A. D. Daniels, 
 O. Farkas, J. B. Foresman, J. V. Ortiz, J. Cioslowski, 
 and D. J. Fox, Gaussian, Inc., Wallingford CT, 2013.
 
 ******************************************
 Gaussian 09:  ES64L-G09RevE.01 30-Nov-2015
                22-Jan-2018 
 ******************************************
 %chk=ammonia.pbesvp.chk
 %nproc=2
 Will use up to    2 processors via shared memory.
 %mem=8000MB
 ----------------------------------------------------------------------
 #P PBEPBE/def2SVP/W06 DenFit opt(MaxCycle=100) scf(xqc,MaxConventional
 Cycle=500) int(ultrafinegrid) gfinput gfoldprint iop(6/7=3) symmetry(l
 oose)
 ----------------------------------------------------------------------
 1/6=100,14=-1,18=20,19=15,26=4,38=1/1,3;
 2/9=110,12=2,17=4,18=3,40=1/2;
 3/5=43,7=101,11=2,16=1,24=11,25=1,30=1,71=1,74=1009,75=-5,82=40/1,2,3;
 4//1;
 5/5=2,8=3,13=1,38=5,85=500/2,8;
 6/7=3,8=2,9=2,10=2,28=1/1;
 7//1,2,3,16;
 1/6=100,14=-1,18=20,19=15,26=4/3(2);
 2/9=110/2;
 99//99;
 2/9=110/2;
 3/5=43,7=101,11=2,16=1,25=1,30=1,71=1,74=1009,75=-5,82=40/1,2,3;
 4/5=5,16=3,69=1/1;
 5/5=2,8=3,13=1,38=5,85=500/2,8;
 7//1,2,3,16;
 1/6=100,14=-1,18=20,19=15,26=4/3(-5);
 2/9=110/2;
 6/7=3,8=2,9=2,10=2,19=2,28=1/1;
 99/9=1/99;
 Leave Link    1 at Mon Jan 22 15:04:53 2018, MaxMem=  1048576000 cpu:         0.2
 (Enter /home/chemsoft/gaussian/g09e01/g09/l101.exe)
 -----------------------
 Ammonia DF-PBE/def2-SVP
 -----------------------
 Symbolic Z-matrix:
 Charge =  0 Multiplicity = 1
 N                     0.        0.       -0.07057 
 H                    -0.93718   0.        0.32685 
 H                     0.46859   0.81162   0.32685 
 H                     0.46859  -0.81162   0.32685 
 
 NAtoms=      4 NQM=        4 NQMF=       0 NMMI=      0 NMMIF=      0
                NMic=       0 NMicF=      0.
                    Isotopes and Nuclear Properties:
 (Nuclear quadrupole moments (NQMom) in fm**2, nuclear magnetic moments (NMagM)
  in nuclear magnetons)

  Atom         1           2           3           4
 IAtWgt=          14           1           1           1
 AtmWgt=  14.0030740   1.0078250   1.0078250   1.0078250
 NucSpn=           2           1           1           1
 AtZEff=   0.0000000   0.0000000   0.0000000   0.0000000
 NQMom=    2.0440000   0.0000000   0.0000000   0.0000000
 NMagM=    0.4037610   2.7928460   2.7928460   2.7928460
 AtZNuc=   7.0000000   1.0000000   1.0000000   1.0000000
 Leave Link  101 at Mon Jan 22 15:04:54 2018, MaxMem=  1048576000 cpu:         0.9
 (Enter /home/chemsoft/gaussian/g09e01/g09/l103.exe)

 GradGradGradGradGradGradGradGradGradGradGradGradGradGradGradGradGradGrad
 Berny optimization.
 Initialization pass.
                           ----------------------------
                           !    Initial Parameters    !
                           ! (Angstroms and Degrees)  !
 --------------------------                            --------------------------
 ! Name  Definition              Value          Derivative Info.                !
 --------------------------------------------------------------------------------
 ! R1    R(1,2)                  1.018          estimate D2E/DX2                !
 ! R2    R(1,3)                  1.018          estimate D2E/DX2                !
 ! R3    R(1,4)                  1.018          estimate D2E/DX2                !
 ! A1    A(2,1,3)              105.7458         estimate D2E/DX2                !
 ! A2    A(2,1,4)              105.7458         estimate D2E/DX2                !
 ! A3    A(3,1,4)              105.7458         estimate D2E/DX2                !
 ! D1    D(2,1,4,3)           -111.8661         estimate D2E/DX2                !
 --------------------------------------------------------------------------------
 Trust Radius=3.00D-01 FncErr=1.00D-07 GrdErr=1.00D-06
 Number of steps in this run=    100 maximum allowed number of steps=    100.
 GradGradGradGradGradGradGradGradGradGradGradGradGradGradGradGradGradGrad

 Leave Link  103 at Mon Jan 22 15:04:54 2018, MaxMem=  1048576000 cpu:         0.0
 (Enter /home/chemsoft/gaussian/g09e01/g09/l202.exe)
                          Input orientation:                          
 ---------------------------------------------------------------------
 Center     Atomic      Atomic             Coordinates (Angstroms)
 Number     Number       Type             X           Y           Z
 ---------------------------------------------------------------------
      1          7           0        0.000000    0.000000   -0.070572
      2          1           0       -0.937180    0.000000    0.326851
      3          1           0        0.468590    0.811621    0.326851
      4          1           0        0.468590   -0.811621    0.326851
 ---------------------------------------------------------------------
                    Distance matrix (angstroms):
                    1          2          3          4
     1  N    0.000000
     2  H    1.017964   0.000000
     3  H    1.017964   1.623243   0.000000
     4  H    1.017964   1.623243   1.623243   0.000000
 Stoichiometry    H3N
 Framework group  C3V[C3(N),3SGV(H)]
 Deg. of freedom     2
 Full point group                 C3V     NOp   6
 Largest Abelian subgroup         CS      NOp   2
 Largest concise Abelian subgroup CS      NOp   2
                         Standard orientation:                         
 ---------------------------------------------------------------------
 Center     Atomic      Atomic             Coordinates (Angstroms)
 Number     Number       Type             X           Y           Z
 ---------------------------------------------------------------------
      1          7           0        0.000000    0.000000    0.119227
      2          1           0        0.000000    0.937180   -0.278196
      3          1           0       -0.811621   -0.468590   -0.278196
      4          1           0        0.811621   -0.468590   -0.278196
 ---------------------------------------------------------------------
 Rotational constants (GHZ):    293.7377022    293.7377022    190.3115482
 Leave Link  202 at Mon Jan 22 15:04:54 2018, MaxMem=  1048576000 cpu:         0.0
 (Enter /home/chemsoft/gaussian/g09e01/g09/l301.exe)
 Standard basis: def2SVP (5D, 7F)
 ======================================================================================================
                                       Pseudopotential Parameters
 ======================================================================================================
  Center     Atomic      Valence      Angular      Power
  Number     Number     Electrons     Momentum     of R      Exponent        Coefficient   SO-Coeffient
 ======================================================================================================
    1          7
                                   No pseudopotential on this center.
    2          1
                                   No pseudopotential on this center.
    3          1
                                   No pseudopotential on this center.
    4          1
                                   No pseudopotential on this center.
 ======================================================================================================
 Ernie: Thresh=  0.10000D-02 Tol=  0.10000D-05 Strict=F.
 AO basis set in the form of general basis input (Overlap normalization):
      1 0
 S   5 1.00       0.000000000000
      0.1712841585D+04 -0.5447799580D-02
      0.2576481268D+03 -0.4062717463D-01
      0.5845824585D+02 -0.1811196225D+00
      0.1619836791D+02 -0.4684397556D+00
      0.5005260081D+01 -0.4461684629D+00
 S   1 1.00       0.000000000000
      0.5873185657D+00  0.1000000000D+01
 S   1 1.00       0.000000000000
      0.1876459225D+00  0.1000000000D+01
 P   3 1.00       0.000000000000
      0.1357147023D+02 -0.5884811697D-01
      0.2925737287D+01 -0.3202462476D+00
      0.7992775075D+00 -0.7532822652D+00
 P   1 1.00       0.000000000000
      0.2195434803D+00  0.1000000000D+01
 D   1 1.00       0.000000000000
      0.1000000000D+01  0.1000000000D+01
 ****
      2 0
 S   3 1.00       0.000000000000
      0.1301070100D+02  0.3348548481D-01
      0.1962257200D+01  0.2347218709D+00
      0.4445379600D+00  0.8137702853D+00
 S   1 1.00       0.000000000000
      0.1219496200D+00  0.1000000000D+01
 P   1 1.00       0.000000000000
      0.8000000000D+00  0.1000000000D+01
 ****
      3 0
 S   3 1.00       0.000000000000
      0.1301070100D+02  0.3348548481D-01
      0.1962257200D+01  0.2347218709D+00
      0.4445379600D+00  0.8137702853D+00
 S   1 1.00       0.000000000000
      0.1219496200D+00  0.1000000000D+01
 P   1 1.00       0.000000000000
      0.8000000000D+00  0.1000000000D+01
 ****
      4 0
 S   3 1.00       0.000000000000
      0.1301070100D+02  0.3348548481D-01
      0.1962257200D+01  0.2347218709D+00
      0.4445379600D+00  0.8137702853D+00
 S   1 1.00       0.000000000000
      0.1219496200D+00  0.1000000000D+01
 P   1 1.00       0.000000000000
      0.8000000000D+00  0.1000000000D+01
 ****

 ***********************************************************************************************************************************
 *             ATOMIC CENTER             *        ATOMIC ORBITAL       *                     GAUSSIAN FUNCTIONS                    *
 ***********************************************************************************************************************************
 *                                       * FUNCTION    SHELL    SCALE  *                                                           *
 *    ATOM   X-COORD  Y-COORD  Z-COORD   *  NUMBER     TYPE     FACTOR *  EXPONENT    S-COEF      P-COEF      D-COEF      F-COEF   *
 ***********************************************************************************************************************************
 *     N      0.00000  0.00000  0.22531                                                                                            *
+                                                1   S           1.00                                                               
+                                                                      0.171284D+04-.103376D+010.000000D+000.000000D+000.000000D+00 
 *                                                                     0.257648D+03-.186207D+010.000000D+000.000000D+000.000000D+00*
 *                                                                     0.584582D+02-.272904D+010.000000D+000.000000D+000.000000D+00*
 *                                                                     0.161984D+02-.269567D+010.000000D+000.000000D+000.000000D+00*
 *                                                                     0.500526D+01-.106409D+010.000000D+000.000000D+000.000000D+00*
 *                                               2   S           1.00                                                              *
+                                                                      0.587319D+000.478151D+000.000000D+000.000000D+000.000000D+00 
 *                                               3   S           1.00                                                              *
+                                                                      0.187646D+000.203196D+000.000000D+000.000000D+000.000000D+00 
 *                                           4-  6   P           1.00                                                              *
+                                                                      0.135715D+020.000000D+00-.218502D+010.000000D+000.000000D+00 
 *                                                                     0.292574D+010.000000D+00-.174670D+010.000000D+000.000000D+00*
 *                                                                     0.799278D+000.000000D+00-.811465D+000.000000D+000.000000D+00*
 *                                           7-  9   P           1.00                                                              *
+                                                                      0.219543D+000.000000D+000.214211D+000.000000D+000.000000D+00 
 *                                          10- 14   D           1.00                                                              *
+                                                                      0.100000D+010.000000D+000.000000D+000.164592D+010.000000D+00 
 *---------------------------------------------------------------------------------------------------------------------------------*
 *     H      0.00000  1.77101 -0.52571                                                                                            *
+                                               15   S           1.00                                                               
+                                                                      0.130107D+020.163490D+000.000000D+000.000000D+000.000000D+00 
 *                                                                     0.196226D+010.277352D+000.000000D+000.000000D+000.000000D+00*
 *                                                                     0.444538D+000.315750D+000.000000D+000.000000D+000.000000D+00*
 *                                              16   S           1.00                                                              *
+                                                                      0.121950D+000.147077D+000.000000D+000.000000D+000.000000D+00 
 *                                          17- 19   P           1.00                                                              *
+                                                                      0.800000D+000.000000D+000.107846D+010.000000D+000.000000D+00 
 *---------------------------------------------------------------------------------------------------------------------------------*
 *     H     -1.53374 -0.88551 -0.52571                                                                                            *
+                                               20   S           1.00                                                               
+                                                                      0.130107D+020.163490D+000.000000D+000.000000D+000.000000D+00 
 *                                                                     0.196226D+010.277352D+000.000000D+000.000000D+000.000000D+00*
 *                                                                     0.444538D+000.315750D+000.000000D+000.000000D+000.000000D+00*
 *                                              21   S           1.00                                                              *
+                                                                      0.121950D+000.147077D+000.000000D+000.000000D+000.000000D+00 
 *                                          22- 24   P           1.00                                                              *
+                                                                      0.800000D+000.000000D+000.107846D+010.000000D+000.000000D+00 
 *---------------------------------------------------------------------------------------------------------------------------------*
 *     H      1.53374 -0.88551 -0.52571                                                                                            *
+                                               25   S           1.00                                                               
+                                                                      0.130107D+020.163490D+000.000000D+000.000000D+000.000000D+00 
 *                                                                     0.196226D+010.277352D+000.000000D+000.000000D+000.000000D+00*
 *                                                                     0.444538D+000.315750D+000.000000D+000.000000D+000.000000D+00*
 *                                              26   S           1.00                                                              *
+                                                                      0.121950D+000.147077D+000.000000D+000.000000D+000.000000D+00 
 *                                          27- 29   P           1.00                                                              *
+                                                                      0.800000D+000.000000D+000.107846D+010.000000D+000.000000D+00 
 ***********************************************************************************************************************************
 There are    20 symmetry adapted cartesian basis functions of A'  symmetry.
 There are    10 symmetry adapted cartesian basis functions of A"  symmetry.
 There are    19 symmetry adapted basis functions of A'  symmetry.
 There are    10 symmetry adapted basis functions of A"  symmetry.
    29 basis functions,    46 primitive gaussians,    30 cartesian basis functions
     5 alpha electrons        5 beta electrons
       nuclear repulsion energy        11.8946157701 Hartrees.
 IExCor= 1009 DFT=T Ex=PBE Corr=PBE ExCW=0 ScaHFX=  0.000000
 ScaDFX=  1.000000  1.000000  1.000000  1.000000 ScalE2=  1.000000  1.000000
 IRadAn=      5 IRanWt=     -1 IRanGd=            0 ICorTp=0 IEmpDi=  4
 NAtoms=    4 NActive=    4 NUniq=    2 SFac= 4.00D+00 NAtFMM=   60 NAOKFM=F Big=F
 Integral buffers will be    131072 words long.
 Raffenetti 2 integral format.
 Two-electron integral symmetry is turned on.
 Standard density basis: W06 (5D, 7F)
    82 Density fitting functions
 Density basis set in the form of general basis input (Coulomb normalization):
      1 0
 S   7 1.00       0.000000000000
      0.2542940178D+04  0.1572679885D-02
      0.1029547295D+04  0.3977044477D-02
      0.4249053546D+03  0.1953766111D-01
      0.1784573708D+03  0.7476264413D-01
      0.7613627420D+02  0.2189767433D+00
      0.3293386530D+02  0.4216718799D+00
      0.1441554360D+02  0.2964029094D+00
 S   1 1.00       0.000000000000
      0.6371889100D+01 -0.1000000000D+01
 S   1 1.00       0.000000000000
      0.2838174200D+01  0.1000000000D+01
 S   1 1.00       0.000000000000
      0.1271179300D+01  0.1000000000D+01
 S   1 1.00       0.000000000000
      0.5712407000D+00  0.1000000000D+01
 S   1 1.00       0.000000000000
      0.2569887000D+00  0.1000000000D+01
 P   2 1.00       0.000000000000
      0.1789759900D+02 -0.1198132470D+01
      0.6534631900D+01  0.2493564618D+00
 P   1 1.00       0.000000000000
      0.2352364500D+01  0.1000000000D+01
 P   1 1.00       0.000000000000
      0.8397377000D+00  0.1000000000D+01
 P   1 1.00       0.000000000000
      0.2989335000D+00  0.1000000000D+01
 D   2 1.00       0.000000000000
      0.7690987000D+01  0.9918940482D-01
      0.2304497200D+01  0.9126124820D+00
 D   1 1.00       0.000000000000
      0.8403987000D+00  0.1000000000D+01
 D   1 1.00       0.000000000000
      0.3303797000D+00  0.1000000000D+01
 F   2 1.00       0.000000000000
      0.2333107600D+01  0.4521076083D+00
      0.8446137000D+00  0.6081562343D+00
 G   1 1.00       0.000000000000
      0.1403770000D+01 -0.1000000000D+01
 ****
      2 0
 S   3 1.00       0.000000000000
      0.1567529270D+02  0.3261158972D-01
      0.3606357800D+01  0.2298046837D+00
      0.1208001600D+01  0.7572083240D+00
 S   1 1.00       0.000000000000
      0.4726794000D+00  0.1000000000D+01
 S   1 1.00       0.000000000000
      0.2018100000D+00  0.1000000000D+01
 P   2 1.00       0.000000000000
      0.2028136500D+01  0.3618361986D+00
      0.5358730000D+00  0.7039303088D+00
 D   1 1.00       0.000000000000
      0.2216512400D+01  0.1000000000D+01
 ****
      3 0
 S   3 1.00       0.000000000000
      0.1567529270D+02  0.3261158972D-01
      0.3606357800D+01  0.2298046837D+00
      0.1208001600D+01  0.7572083240D+00
 S   1 1.00       0.000000000000
      0.4726794000D+00  0.1000000000D+01
 S   1 1.00       0.000000000000
      0.2018100000D+00  0.1000000000D+01
 P   2 1.00       0.000000000000
      0.2028136500D+01  0.3618361986D+00
      0.5358730000D+00  0.7039303088D+00
 D   1 1.00       0.000000000000
      0.2216512400D+01  0.1000000000D+01
 ****
      4 0
 S   3 1.00       0.000000000000
      0.1567529270D+02  0.3261158972D-01
      0.3606357800D+01  0.2298046837D+00
      0.1208001600D+01  0.7572083240D+00
 S   1 1.00       0.000000000000
      0.4726794000D+00  0.1000000000D+01
 S   1 1.00       0.000000000000
      0.2018100000D+00  0.1000000000D+01
 P   2 1.00       0.000000000000
      0.2028136500D+01  0.3618361986D+00
      0.5358730000D+00  0.7039303088D+00
 D   1 1.00       0.000000000000
      0.2216512400D+01  0.1000000000D+01
 ****

 There are    82 symmetry adapted density basis functions of A   symmetry.
 Leave Link  301 at Mon Jan 22 15:04:54 2018, MaxMem=  1048576000 cpu:         0.4
 (Enter /home/chemsoft/gaussian/g09e01/g09/l302.exe)
 NPDir=0 NMtPBC=     1 NCelOv=     1 NCel=       1 NClECP=     1 NCelD=      1
         NCelK=      1 NCelE2=     1 NClLst=     1 CellRange=     0.0.
 One-electron integrals computed using PRISM.
 One-electron integral symmetry used in STVInt
   6 Symmetry operations used in ECPInt.
 ECPInt:  NShTT=     120 NPrTT=     400 LenC2=     121 LenP2D=     397.
 LDataN:  DoStor=T MaxTD1= 4 Len=   56
 NBasis=    29 RedAO= T EigKep=  3.57D-02  NBF=    19    10
 NBsUse=    29 1.00D-06 EigRej= -1.00D+00 NBFU=    19    10
 NBasis=       29 NBas6D=       30 NTT=         435   NTT6D=      465
 NDBShl=       30 NDBF=         82 NDBF6D=       97  NNucDB=        0
 IDenFi=        2 ISolve=        0 FullAP=F BlkAPC=T NucTyp=        0
 TolInv= 1.00D-06 TolIt=  1.00D-10 IR12=0.
 FoFCou: FMM=F IPFlag=           0 FMFlag=           0 FMFlg1=           0
         NFxFlg=           0 DoJE=F BraDBF=T KetDBF=T FulRan=T
         wScrn=  0.000000 ICntrl=     600 IOpCl=  3 I1Cent=           6 NGrid=           0
         NMat0=    1 NMatS0=     97 NMatT0=    0 NMatD0=    1 NMtDS0=    0 NMtDT0=    0
 Petite list used in FoFCou.
 DBF EigKep=  2.23D-04 EigRej= -1.00D+00
 NDBF=     82  NBFD=    82
 NRank=    82 NBFDU=    82
 S*AI*S=  4.69510056737    
 Precomputing XC quadrature grid using
 IXCGrd= 4 IRadAn=           5 IRanWt=          -1 IRanGd=           0 AccXCQ= 0.00D+00.
 Generated NRdTot=       0 NPtTot=           0 NUsed=           0 NTot=          32
 NSgBfM=    30    30    30    30    30 MxSgAt=     4 MxSgA2=     4.
 Leave Link  302 at Mon Jan 22 15:04:54 2018, MaxMem=  1048576000 cpu:         0.7
 (Enter /home/chemsoft/gaussian/g09e01/g09/l303.exe)
 DipDrv:  MaxL=1.
 Leave Link  303 at Mon Jan 22 15:04:54 2018, MaxMem=  1048576000 cpu:         0.1
 (Enter /home/chemsoft/gaussian/g09e01/g09/l401.exe)
 ExpMin= 1.22D-01 ExpMax= 1.71D+03 ExpMxC= 2.58D+02 IAcc=3 IRadAn=         5 AccDes= 0.00D+00
 Harris functional with IExCor= 1009 and IRadAn=       5 diagonalized for initial guess.
 HarFok:  IExCor= 1009 AccDes= 0.00D+00 IRadAn=         5 IDoV= 1 UseB2=F ITyADJ=14
 ICtDFT=  3500011 ScaDFX=  1.000000  1.000000  1.000000  1.000000
 FoFCou: FMM=F IPFlag=           0 FMFlag=      100000 FMFlg1=           0
         NFxFlg=           0 DoJE=T BraDBF=F KetDBF=T FulRan=T
         wScrn=  0.000000 ICntrl=     500 IOpCl=  0 I1Cent=   200000004 NGrid=           0
         NMat0=    1 NMatS0=      1 NMatT0=    0 NMatD0=    1 NMtDS0=    0 NMtDT0=    0
 Petite list used in FoFCou.
 Harris En= -56.4786131102412    
 JPrj=0 DoOrth=F DoCkMO=F.
 Initial guess orbital symmetries:
       Occupied  (A1) (A1) (E) (E) (A1)
       Virtual   (A1) (E) (E) (E) (E) (A1) (A1) (E) (E) (A1) (E)
                 (E) (A2) (A1) (E) (E) (E) (E) (A1) (E) (E) (A1)
                 (E) (E)
 The electronic state of the initial guess is 1-A1.
 Leave Link  401 at Mon Jan 22 15:04:55 2018, MaxMem=  1048576000 cpu:         0.6
 (Enter /home/chemsoft/gaussian/g09e01/g09/l502.exe)
 Closed shell SCF:
 Density fitting will be used, IDenFit= 2 NucTyp=  0.
 Using DIIS extrapolation, IDIIS=  1040.
 Integral symmetry usage will be decided dynamically.
 IVT=      257426 IEndB=      257426 NGot=  1048576000 MDV=  1048570505
 LenX=  1048570505 LenY=  1048569164
 Requested convergence on RMS density matrix=1.00D-08 within 500 cycles.
 Requested convergence on MAX density matrix=1.00D-06.
 Requested convergence on             energy=1.00D-06.
 No special actions if energy rises.
 Fock matrices will be formed incrementally for  20 cycles.

 Cycle   1  Pass 0  IDiag  1:
 FoFCou: FMM=F IPFlag=           0 FMFlag=      100000 FMFlg1=           0
         NFxFlg=           0 DoJE=T BraDBF=T KetDBF=F FulRan=T
         wScrn=  0.000000 ICntrl=     500 IOpCl=  0 I1Cent=           5 NGrid=           0
         NMat0=    1 NMatS0=      1 NMatT0=    0 NMatD0=    1 NMtDS0=    0 NMtDT0=    0
 Petite list used in FoFCou.
 FoFJK:  IHMeth= 1 ICntrl=     500 DoSepK=F KAlg= 0 I1Cent=   4 FoldK=F
 IRaf= 990000000 NMat=   1 IRICut=       1 DoRegI=T DoRafI=F ISym2E= 1.
 E= -56.3614815499954    
 DIIS: error= 6.34D-02 at cycle   1 NSaved=   1.
 NSaved= 1 IEnMin= 1 EnMin= -56.3614815499954     IErMin= 1 ErrMin= 6.34D-02
 ErrMax= 6.34D-02  0.00D+00 EMaxC= 1.00D-01 BMatC= 7.94D-02 BMatP= 7.94D-02
 IDIUse=3 WtCom= 3.66D-01 WtEn= 6.34D-01
 Coeff-Com:  0.100D+01
 Coeff-En:   0.100D+01
 Coeff:      0.100D+01
 Gap=     0.112 Goal=   None    Shift=    0.000
 GapD=    0.112 DampG=1.000 DampE=0.500 DampFc=0.5000 IDamp=-1.
 Damping current iteration by 5.00D-01
 RMSDP=2.34D-02 MaxDP=2.33D-01              OVMax= 2.17D-01

 Cycle   2  Pass 0  IDiag  1:
 RMSU=  1.16D-02    CP:  9.69D-01
 E= -56.3751026134806     Delta-E=       -0.013621063485 Rises=F Damp=T
 DIIS: error= 2.09D-02 at cycle   2 NSaved=   2.
 NSaved= 2 IEnMin= 2 EnMin= -56.3751026134806     IErMin= 2 ErrMin= 2.09D-02
 ErrMax= 2.09D-02  0.00D+00 EMaxC= 1.00D-01 BMatC= 1.03D-02 BMatP= 7.94D-02
 IDIUse=3 WtCom= 7.91D-01 WtEn= 2.09D-01
 Coeff-Com:  0.260D+00 0.740D+00
 Coeff-En:   0.417D+00 0.583D+00
 Coeff:      0.293D+00 0.707D+00
 Gap=     0.220 Goal=   None    Shift=    0.000
 RMSDP=4.54D-03 MaxDP=6.84D-02 DE=-1.36D-02 OVMax= 1.46D-01

 Cycle   3  Pass 0  IDiag  1:
 RMSU=  2.38D-03    CP:  9.76D-01  6.67D-01
 E= -56.4325935295758     Delta-E=       -0.057490916095 Rises=F Damp=F
 DIIS: error= 3.70D-03 at cycle   3 NSaved=   3.
 NSaved= 3 IEnMin= 3 EnMin= -56.4325935295758     IErMin= 3 ErrMin= 3.70D-03
 ErrMax= 3.70D-03  0.00D+00 EMaxC= 1.00D-01 BMatC= 3.53D-04 BMatP= 1.03D-02
 IDIUse=3 WtCom= 9.63D-01 WtEn= 3.70D-02
 Coeff-Com:  0.758D-01 0.611D-01 0.863D+00
 Coeff-En:   0.000D+00 0.000D+00 0.100D+01
 Coeff:      0.730D-01 0.589D-01 0.868D+00
 Gap=     0.236 Goal=   None    Shift=    0.000
 RMSDP=4.55D-04 MaxDP=4.47D-03 DE=-5.75D-02 OVMax= 4.96D-03

 Cycle   4  Pass 0  IDiag  1:
 RMSU=  2.82D-04    CP:  9.78D-01  6.42D-01  9.31D-01
 E= -56.4328752808940     Delta-E=       -0.000281751318 Rises=F Damp=F
 DIIS: error= 4.34D-04 at cycle   4 NSaved=   4.
 NSaved= 4 IEnMin= 4 EnMin= -56.4328752808940     IErMin= 4 ErrMin= 4.34D-04
 ErrMax= 4.34D-04  0.00D+00 EMaxC= 1.00D-01 BMatC= 3.55D-06 BMatP= 3.53D-04
 IDIUse=3 WtCom= 9.96D-01 WtEn= 4.34D-03
 Coeff-Com:  0.837D-02-0.150D-01 0.215D+00 0.791D+00
 Coeff-En:   0.000D+00 0.000D+00 0.000D+00 0.100D+01
 Coeff:      0.833D-02-0.149D-01 0.214D+00 0.792D+00
 Gap=     0.235 Goal=   None    Shift=    0.000
 RMSDP=5.49D-05 MaxDP=4.26D-04 DE=-2.82D-04 OVMax= 6.03D-04

 Cycle   5  Pass 0  IDiag  1:
 RMSU=  2.94D-05    CP:  9.78D-01  6.41D-01  9.42D-01  8.66D-01
 E= -56.4328781858001     Delta-E=       -0.000002904906 Rises=F Damp=F
 DIIS: error= 8.73D-05 at cycle   5 NSaved=   5.
 NSaved= 5 IEnMin= 5 EnMin= -56.4328781858001     IErMin= 5 ErrMin= 8.73D-05
 ErrMax= 8.73D-05  0.00D+00 EMaxC= 1.00D-01 BMatC= 1.39D-07 BMatP= 3.55D-06
 IDIUse=1 WtCom= 1.00D+00 WtEn= 0.00D+00
 Coeff-Com:  0.186D-02-0.163D-02 0.194D-01 0.628D-01 0.918D+00
 Coeff:      0.186D-02-0.163D-02 0.194D-01 0.628D-01 0.918D+00
 Gap=     0.235 Goal=   None    Shift=    0.000
 RMSDP=1.08D-05 MaxDP=8.08D-05 DE=-2.90D-06 OVMax= 1.14D-04

 Cycle   6  Pass 0  IDiag  1:
 RMSU=  1.84D-06    CP:  9.78D-01  6.40D-01  9.41D-01  8.62D-01  9.38D-01
 E= -56.4328783191202     Delta-E=       -0.000000133320 Rises=F Damp=F
 DIIS: error= 3.87D-06 at cycle   6 NSaved=   6.
 NSaved= 6 IEnMin= 6 EnMin= -56.4328783191202     IErMin= 6 ErrMin= 3.87D-06
 ErrMax= 3.87D-06  0.00D+00 EMaxC= 1.00D-01 BMatC= 3.63D-10 BMatP= 1.39D-07
 IDIUse=1 WtCom= 1.00D+00 WtEn= 0.00D+00
 Coeff-Com:  0.174D-03-0.129D-03 0.129D-02 0.165D-02 0.595D-01 0.938D+00
 Coeff:      0.174D-03-0.129D-03 0.129D-02 0.165D-02 0.595D-01 0.938D+00
 Gap=     0.235 Goal=   None    Shift=    0.000
 RMSDP=5.34D-07 MaxDP=4.88D-06 DE=-1.33D-07 OVMax= 4.96D-06

 Initial convergence to 1.0D-05 achieved.  Increase integral accuracy.
 Cycle   7  Pass 1  IDiag  1:
 E= -56.4328776013998     Delta-E=        0.000000717720 Rises=F Damp=F
 DIIS: error= 2.72D-07 at cycle   1 NSaved=   1.
 NSaved= 1 IEnMin= 1 EnMin= -56.4328776013998     IErMin= 1 ErrMin= 2.72D-07
 ErrMax= 2.72D-07  0.00D+00 EMaxC= 1.00D-01 BMatC= 3.41D-12 BMatP= 3.41D-12
 IDIUse=1 WtCom= 1.00D+00 WtEn= 0.00D+00
 Coeff-Com:  0.100D+01
 Coeff:      0.100D+01
 Gap=     0.235 Goal=   None    Shift=    0.000
 RMSDP=5.34D-07 MaxDP=4.88D-06 DE= 7.18D-07 OVMax= 1.48D-06

 Cycle   8  Pass 1  IDiag  1:
 RMSU=  1.07D-07    CP:  1.00D+00
 E= -56.4328776013996     Delta-E=        0.000000000000 Rises=F Damp=F
 DIIS: error= 4.54D-07 at cycle   2 NSaved=   2.
 NSaved= 2 IEnMin= 1 EnMin= -56.4328776013998     IErMin= 1 ErrMin= 2.72D-07
 ErrMax= 4.54D-07  0.00D+00 EMaxC= 1.00D-01 BMatC= 4.33D-12 BMatP= 3.41D-12
 IDIUse=1 WtCom= 1.00D+00 WtEn= 0.00D+00
 Coeff-Com:  0.535D+00 0.465D+00
 Coeff:      0.535D+00 0.465D+00
 Gap=     0.235 Goal=   None    Shift=    0.000
 RMSDP=7.07D-08 MaxDP=6.48D-07 DE= 2.42D-13 OVMax= 7.09D-07

 Cycle   9  Pass 1  IDiag  1:
 RMSU=  6.14D-08    CP:  1.00D+00  6.72D-01
 E= -56.4328776014032     Delta-E=       -0.000000000004 Rises=F Damp=F
 DIIS: error= 1.17D-07 at cycle   3 NSaved=   3.
 NSaved= 3 IEnMin= 3 EnMin= -56.4328776014032     IErMin= 3 ErrMin= 1.17D-07
 ErrMax= 1.17D-07  0.00D+00 EMaxC= 1.00D-01 BMatC= 3.06D-13 BMatP= 3.41D-12
 IDIUse=1 WtCom= 1.00D+00 WtEn= 0.00D+00
 Coeff-Com:  0.665D-01 0.220D+00 0.714D+00
 Coeff:      0.665D-01 0.220D+00 0.714D+00
 Gap=     0.235 Goal=   None    Shift=    0.000
 RMSDP=1.51D-08 MaxDP=1.51D-07 DE=-3.60D-12 OVMax= 1.49D-07

 Cycle  10  Pass 1  IDiag  1:
 RMSU=  7.24D-09    CP:  1.00D+00  7.07D-01  7.96D-01
 E= -56.4328776014033     Delta-E=       -0.000000000000 Rises=F Damp=F
 DIIS: error= 9.45D-09 at cycle   4 NSaved=   4.
 NSaved= 4 IEnMin= 4 EnMin= -56.4328776014033     IErMin= 4 ErrMin= 9.45D-09
 ErrMax= 9.45D-09  0.00D+00 EMaxC= 1.00D-01 BMatC= 1.71D-15 BMatP= 3.06D-13
 IDIUse=1 WtCom= 1.00D+00 WtEn= 0.00D+00
 Coeff-Com:  0.467D-02 0.401D-01 0.160D+00 0.795D+00
 Coeff:      0.467D-02 0.401D-01 0.160D+00 0.795D+00
 Gap=     0.235 Goal=   None    Shift=    0.000
 RMSDP=1.28D-09 MaxDP=1.01D-08 DE=-1.28D-13 OVMax= 1.57D-08

 SCF Done:  E(RPBE-PBE) =  -56.4328776014     A.U. after   10 cycles
            NFock= 10  Conv=0.13D-08     -V/T= 2.0093
 KE= 5.591043188890D+01 PE=-1.554618162589D+02 EE= 3.122389099855D+01
 Leave Link  502 at Mon Jan 22 15:05:00 2018, MaxMem=  1048576000 cpu:         9.4
 (Enter /home/chemsoft/gaussian/g09e01/g09/l508.exe)
 QCSCF skips out because SCF is already converged.
 Leave Link  508 at Mon Jan 22 15:05:00 2018, MaxMem=  1048576000 cpu:         0.0
 (Enter /home/chemsoft/gaussian/g09e01/g09/l601.exe)
 Copying SCF densities to generalized density rwf, IOpCl= 0 IROHF=0.

 **********************************************************************

            Population analysis using the SCF density.

 **********************************************************************

 Orbital symmetries:
       Occupied  (A1) (A1) (E) (E) (A1)
       Virtual   (A1) (E) (E) (E) (E) (A1) (A1) (E) (E) (A1) (E)
                 (E) (A2) (A1) (E) (E) (E) (E) (A1) (E) (E) (A1)
                 (E) (E)
 The electronic state is 1-A1.
 Alpha  occ. eigenvalues --  -13.96377  -0.75586  -0.39946  -0.39946  -0.20085
 Alpha virt. eigenvalues --    0.03464   0.11734   0.11734   0.47986   0.47986
 Alpha virt. eigenvalues --    0.60294   0.70005   0.79318   0.79318   0.88051
 Alpha virt. eigenvalues --    1.14278   1.14278   1.54644   1.61801   1.74600
 Alpha virt. eigenvalues --    1.74600   2.02445   2.02445   2.38097   2.72553
 Alpha virt. eigenvalues --    2.72553   2.80174   3.24055   3.24055
     Molecular Orbital Coefficients:
                           1         2         3         4         5
                        (A1)--O   (A1)--O   (E)--O    (E)--O    (A1)--O
     Eigenvalues --   -13.96377  -0.75586  -0.39946  -0.39946  -0.20085
   1 1   N  1S          0.98800   0.25962   0.00000  -0.00000  -0.10047
   2        2S         -0.04603   0.51618   0.00000  -0.00000  -0.20485
   3        3S          0.01877   0.16666   0.00000  -0.00000  -0.33080
   4        4PX         0.00000   0.00000   0.46750   0.00000   0.00000
   5        4PY         0.00000   0.00000   0.00000   0.46750   0.00000
   6        4PZ        -0.00399   0.11337   0.00000  -0.00000   0.54276
   7        5PX         0.00000   0.00000  -0.18755   0.00000   0.00000
   8        5PY        -0.00000  -0.00000   0.00000  -0.18755  -0.00000
   9        5PZ        -0.00044  -0.00689   0.00000   0.00000  -0.43967
  10        6D 0        0.00153  -0.00200   0.00000   0.00000   0.02187
  11        6D+1        0.00000   0.00000   0.02099   0.00000   0.00000
  12        6D-1       -0.00000   0.00000   0.00000   0.02099  -0.00000
  13        6D+2       -0.00000   0.00000   0.00000   0.00907  -0.00000
  14        6D-2        0.00000   0.00000   0.00907   0.00000   0.00000
  15 2   H  1S          0.00368   0.19593   0.00000  -0.37601   0.08669
  16        2S         -0.00307   0.02535   0.00000  -0.15570   0.05884
  17        3PX         0.00000   0.00000  -0.02222   0.00000   0.00000
  18        3PY        -0.00356  -0.02706   0.00000   0.01652  -0.00922
  19        3PZ         0.00152   0.00392   0.00000  -0.01099  -0.02294
  20 3   H  1S          0.00368   0.19593   0.32563   0.18800   0.08669
  21        2S         -0.00307   0.02535   0.13484   0.07785   0.05884
  22        3PX         0.00308   0.02344   0.00684   0.01677   0.00798
  23        3PY         0.00178   0.01353   0.01677  -0.01253   0.00461
  24        3PZ         0.00152   0.00392   0.00952   0.00550  -0.02294
  25 4   H  1S          0.00368   0.19593  -0.32563   0.18800   0.08669
  26        2S         -0.00307   0.02535  -0.13484   0.07785   0.05884
  27        3PX        -0.00308  -0.02344   0.00684  -0.01677  -0.00798
  28        3PY         0.00178   0.01353  -0.01677  -0.01253   0.00461
  29        3PZ         0.00152   0.00392  -0.00952   0.00550  -0.02294
                           6         7         8         9        10
                        (A1)--V   (E)--V    (E)--V    (E)--V    (E)--V
     Eigenvalues --     0.03464   0.11734   0.11734   0.47986   0.47986
   1 1   N  1S          0.12936   0.00000   0.00000  -0.00000   0.00000
   2        2S          0.22187   0.00000   0.00000  -0.00000   0.00000
   3        3S          1.46174   0.00000   0.00000   0.00000   0.00000
   4        4PX         0.00000   0.00000  -0.39662   0.00000  -0.14979
   5        4PY        -0.00000   0.39662   0.00000   0.14979   0.00000
   6        4PZ         0.19148   0.00000   0.00000  -0.00000   0.00000
   7        5PX         0.00000   0.00000   0.77641   0.00000   0.55582
   8        5PY         0.00000  -0.77641   0.00000  -0.55582   0.00000
   9        5PZ        -0.33981  -0.00000   0.00000   0.00000   0.00000
  10        6D 0        0.00396   0.00000   0.00000  -0.00000   0.00000
  11        6D+1        0.00000   0.00000  -0.00920   0.00000   0.06500
  12        6D-1       -0.00000   0.00920   0.00000  -0.06500   0.00000
  13        6D+2       -0.00000  -0.00662   0.00000  -0.09622   0.00000
  14        6D-2        0.00000   0.00000   0.00662   0.00000   0.09622
  15 2   H  1S         -0.08503   0.12772   0.00000   1.06936   0.00000
  16        2S         -0.77004   1.57083   0.00000  -0.77793   0.00000
  17        3PX         0.00000   0.00000   0.00691   0.00000   0.09749
  18        3PY        -0.00633   0.00584   0.00000   0.05580   0.00000
  19        3PZ         0.00145  -0.00627   0.00000  -0.05126   0.00000
  20 3   H  1S         -0.08503  -0.06386   0.11061  -0.53468   0.92609
  21        2S         -0.77004  -0.78541   1.36038   0.38897  -0.67371
  22        3PX         0.00548   0.00552  -0.00265   0.06638  -0.01748
  23        3PY         0.00317  -0.00372  -0.00552  -0.05917  -0.06638
  24        3PZ         0.00145   0.00313  -0.00543   0.02563  -0.04440
  25 4   H  1S         -0.08503  -0.06386  -0.11061  -0.53468  -0.92609
  26        2S         -0.77004  -0.78541  -1.36038   0.38897   0.67371
  27        3PX        -0.00548  -0.00552  -0.00265  -0.06638  -0.01748
  28        3PY         0.00317  -0.00372   0.00552  -0.05917   0.06638
  29        3PZ         0.00145   0.00313   0.00543   0.02563   0.04440
                          11        12        13        14        15
                        (A1)--V   (A1)--V   (E)--V    (E)--V    (A1)--V
     Eigenvalues --     0.60294   0.70005   0.79318   0.79318   0.88051
   1 1   N  1S         -0.17822  -0.15778  -0.00000   0.00000  -0.19171
   2        2S         -0.79489  -0.78109  -0.00000   0.00000  -1.54817
   3        3S          1.20181   0.66775   0.00000   0.00000   3.70948
   4        4PX         0.00000   0.00000   0.00000   0.88751   0.00000
   5        4PY        -0.00000   0.00000   0.88751   0.00000  -0.00000
   6        4PZ        -0.37910   0.86403  -0.00000   0.00000  -0.22661
   7        5PX         0.00000   0.00000   0.00000   1.75432   0.00000
   8        5PY         0.00000   0.00000   1.75432   0.00000  -0.00000
   9        5PZ        -0.27041   0.99286  -0.00000   0.00000  -0.87147
  10        6D 0       -0.08319  -0.00111   0.00000   0.00000   0.09380
  11        6D+1        0.00000   0.00000   0.00000  -0.03650   0.00000
  12        6D-1        0.00000   0.00000  -0.03650   0.00000  -0.00000
  13        6D+2        0.00000   0.00000  -0.04299   0.00000   0.00000
  14        6D-2        0.00000   0.00000   0.00000  -0.04299   0.00000
  15 2   H  1S          0.59861   0.17799  -0.07329   0.00000  -0.63548
  16        2S         -0.61770  -0.10567  -1.27095   0.00000  -0.58574
  17        3PX         0.00000   0.00000   0.00000   0.00426   0.00000
  18        3PY         0.17399  -0.01470   0.20785   0.00000   0.00535
  19        3PZ         0.00716   0.00718  -0.09512   0.00000  -0.15153
  20 3   H  1S          0.59861   0.17799   0.03664   0.06347  -0.63548
  21        2S         -0.61770  -0.10567   0.63547   1.10067  -0.58574
  22        3PX        -0.15068   0.01273   0.08816   0.15696  -0.00463
  23        3PY        -0.08699   0.00735   0.05516   0.08816  -0.00267
  24        3PZ         0.00716   0.00718   0.04756   0.08237  -0.15153
  25 4   H  1S          0.59861   0.17799   0.03664  -0.06347  -0.63548
  26        2S         -0.61770  -0.10567   0.63547  -1.10067  -0.58574
  27        3PX         0.15068  -0.01273  -0.08816   0.15696   0.00463
  28        3PY        -0.08699   0.00735   0.05516  -0.08816  -0.00267
  29        3PZ         0.00716   0.00718   0.04756  -0.08237  -0.15153
                          16        17        18        19        20
                        (E)--V    (E)--V    (A2)--V   (A1)--V   (E)--V
     Eigenvalues --     1.14278   1.14278   1.54644   1.61801   1.74600
   1 1   N  1S         -0.00000   0.00000   0.00000  -0.09123   0.00000
   2        2S         -0.00000   0.00000   0.00000  -0.85380   0.00000
   3        3S          0.00000   0.00000   0.00000   1.74747   0.00000
   4        4PX         0.00000   0.01920  -0.00000   0.00000   0.03287
   5        4PY        -0.01920   0.00000   0.00000   0.00000   0.00000
   6        4PZ        -0.00000   0.00000   0.00000  -0.07482   0.00000
   7        5PX         0.00000  -0.34260  -0.00000   0.00000   0.97411
   8        5PY         0.34260   0.00000   0.00000   0.00000   0.00000
   9        5PZ        -0.00000   0.00000   0.00000  -1.00917   0.00000
  10        6D 0       -0.00000   0.00000   0.00000  -0.29761   0.00000
  11        6D+1        0.00000  -0.20233   0.00000   0.00000   0.09428
  12        6D-1        0.20233   0.00000   0.00000   0.00000   0.00000
  13        6D+2       -0.15426   0.00000   0.00000  -0.00000   0.00000
  14        6D-2        0.00000   0.15426   0.00000   0.00000  -0.06583
  15 2   H  1S         -0.16643   0.00000   0.00000  -0.50238   0.00000
  16        2S         -0.06236   0.00000   0.00000  -0.19037   0.00000
  17        3PX         0.00000   0.47394   0.61216   0.00000  -0.65366
  18        3PY         0.20660   0.00000   0.00000   0.05055   0.00000
  19        3PZ         0.46626   0.00000   0.00000   0.53703   0.00000
  20 3   H  1S          0.08321  -0.14413  -0.00000  -0.50238   0.36661
  21        2S          0.03118  -0.05400   0.00000  -0.19037   0.16205
  22        3PX         0.29468  -0.03646  -0.30608  -0.04377  -0.40384
  23        3PY        -0.30381  -0.29468   0.53015  -0.02527   0.14423
  24        3PZ        -0.23313   0.40380  -0.00000   0.53703   0.50690
  25 4   H  1S          0.08321   0.14413   0.00000  -0.50238  -0.36661
  26        2S          0.03118   0.05400  -0.00000  -0.19037  -0.16205
  27        3PX        -0.29468  -0.03646  -0.30608   0.04377  -0.40384
  28        3PY        -0.30381   0.29468  -0.53015  -0.02527  -0.14423
  29        3PZ        -0.23313  -0.40380   0.00000   0.53703  -0.50690
                          21        22        23        24        25
                        (E)--V    (E)--V    (E)--V    (A1)--V   (E)--V
     Eigenvalues --     1.74600   2.02445   2.02445   2.38097   2.72553
   1 1   N  1S         -0.00000   0.00000   0.00000   0.16188  -0.00000
   2        2S         -0.00000   0.00000   0.00000   0.74709  -0.00000
   3        3S          0.00000   0.00000   0.00000   1.51318  -0.00000
   4        4PX         0.00000   0.00000   0.70380   0.00000   0.00000
   5        4PY         0.03287  -0.70380   0.00000   0.00000  -0.00397
   6        4PZ         0.00000   0.00000   0.00000   0.45673  -0.00000
   7        5PX         0.00000   0.00000  -0.08702   0.00000   0.00000
   8        5PY         0.97411   0.08702   0.00000   0.00000  -0.40970
   9        5PZ        -0.00000  -0.00000   0.00000  -0.79825   0.00000
  10        6D 0       -0.00000   0.00000   0.00000   0.45860   0.00000
  11        6D+1        0.00000   0.00000  -0.21553   0.00000   0.00000
  12        6D-1        0.09428   0.21553   0.00000  -0.00000   0.79646
  13        6D+2       -0.06583   0.21778   0.00000   0.00000  -0.75970
  14        6D-2        0.00000   0.00000  -0.21778   0.00000   0.00000
  15 2   H  1S         -0.42332  -0.10044   0.00000  -0.62605   0.14069
  16        2S         -0.18712  -0.38591   0.00000  -0.28673   0.11383
  17        3PX         0.00000   0.00000   0.09875   0.00000   0.00000
  18        3PY        -0.32056   0.77960   0.00000   0.76844  -0.12277
  19        3PZ        -0.58532  -0.42867   0.00000   0.13974  -0.27911
  20 3   H  1S          0.21166   0.05022  -0.08699  -0.62605  -0.07034
  21        2S          0.09356   0.19296  -0.33421  -0.28673  -0.05691
  22        3PX         0.14423   0.38034  -0.56001  -0.66549  -0.29561
  23        3PY        -0.57038   0.12084  -0.38034  -0.38422   0.38925
  24        3PZ         0.29266   0.21433  -0.37124   0.13974   0.13955
  25 4   H  1S          0.21166   0.05022   0.08699  -0.62605  -0.07034
  26        2S          0.09356   0.19296   0.33421  -0.28673  -0.05691
  27        3PX        -0.14423  -0.38034  -0.56001   0.66549   0.29561
  28        3PY        -0.57038   0.12084   0.38034  -0.38422   0.38925
  29        3PZ         0.29266   0.21433   0.37124   0.13974   0.13955
                          26        27        28        29
                        (E)--V    (A1)--V   (E)--V    (E)--V
     Eigenvalues --     2.72553   2.80174   3.24055   3.24055
   1 1   N  1S          0.00000   0.16236   0.00000   0.00000
   2        2S          0.00000   0.78281   0.00000   0.00000
   3        3S          0.00000   1.40410   0.00000  -0.00000
   4        4PX        -0.00397   0.00000  -0.71790   0.00000
   5        4PY         0.00000   0.00000   0.00000   0.71790
   6        4PZ         0.00000   0.40111   0.00000   0.00000
   7        5PX        -0.40970   0.00000   1.01217   0.00000
   8        5PY         0.00000  -0.00000   0.00000  -1.01217
   9        5PZ         0.00000  -0.23915   0.00000  -0.00000
  10        6D 0        0.00000  -0.99716   0.00000   0.00000
  11        6D+1        0.79646   0.00000  -0.91323   0.00000
  12        6D-1        0.00000   0.00000   0.00000   0.91323
  13        6D+2        0.00000  -0.00000   0.00000   1.01970
  14        6D-2       -0.75970   0.00000  -1.01970   0.00000
  15 2   H  1S          0.00000  -0.66259   0.00000   1.18830
  16        2S          0.00000  -0.22851   0.00000   0.42221
  17        3PX         0.55992   0.00000  -0.02765   0.00000
  18        3PY         0.00000   0.51620   0.00000  -0.95014
  19        3PZ         0.00000  -0.47164   0.00000   0.39850
  20 3   H  1S         -0.12184  -0.66259   1.02910  -0.59415
  21        2S         -0.09858  -0.22851   0.36565  -0.21111
  22        3PX         0.04790  -0.44704   0.70569  -0.42339
  23        3PY        -0.29561  -0.25810   0.42339  -0.21680
  24        3PZ         0.24172  -0.47164   0.34511  -0.19925
  25 4   H  1S          0.12184  -0.66259  -1.02910  -0.59415
  26        2S          0.09858  -0.22851  -0.36565  -0.21111
  27        3PX         0.04790   0.44704   0.70569   0.42339
  28        3PY         0.29561  -0.25810  -0.42339  -0.21680
  29        3PZ        -0.24172  -0.47164  -0.34511  -0.19925
          Condensed to atoms (all electrons):
               1          2          3          4
     1  N    6.170563   0.357093   0.357093   0.357093
     2  H    0.357093   0.623740  -0.030724  -0.030724
     3  H    0.357093  -0.030724   0.623740  -0.030724
     4  H    0.357093  -0.030724  -0.030724   0.623740
 Mulliken charges:
               1
     1  N   -0.241842
     2  H    0.080614
     3  H    0.080614
     4  H    0.080614
 Sum of Mulliken charges =   0.00000
 Mulliken charges with hydrogens summed into heavy atoms:
               1
     1  N    0.000000
 Electronic spatial extent (au):  <R**2>=             26.2388
 Charge=              0.0000 electrons
 Dipole moment (field-independent basis, Debye):
    X=             -0.0000    Y=              0.0000    Z=             -1.7084  Tot=              1.7084
 Quadrupole moment (field-independent basis, Debye-Ang):
   XX=             -6.2246   YY=             -6.2246   ZZ=             -8.5937
   XY=              0.0000   XZ=              0.0000   YZ=              0.0000
 Traceless Quadrupole moment (field-independent basis, Debye-Ang):
   XX=              0.7897   YY=              0.7897   ZZ=             -1.5794
   XY=              0.0000   XZ=              0.0000   YZ=              0.0000
 Octapole moment (field-independent basis, Debye-Ang**2):
  XXX=             -0.0000  YYY=              0.6496  ZZZ=             -1.3878  XYY=              0.0000
  XXY=             -0.6496  XXZ=             -0.6896  XZZ=              0.0000  YZZ=              0.0000
  YYZ=             -0.6896  XYZ=              0.0000
 Hexadecapole moment (field-independent basis, Debye-Ang**3):
 XXXX=             -9.9651 YYYY=             -9.9651 ZZZZ=             -9.3255 XXXY=              0.0000
 XXXZ=             -0.0000 YYYX=              0.0000 YYYZ=             -0.2793 ZZZX=             -0.0000
 ZZZY=             -0.0000 XXYY=             -3.3217 XXZZ=             -3.2526 YYZZ=             -3.2526
 XXYZ=              0.2793 YYXZ=             -0.0000 ZZXY=              0.0000
 N-N= 1.189461577007D+01 E-N=-1.554618162104D+02  KE= 5.591043188890D+01
 Symmetry A'   KE= 5.330542643122D+01
 Symmetry A"   KE= 2.605005457682D+00
 Orbital energies and kinetic energies (alpha):
                                 1                 2
   1         (A1)--O         -13.963767         21.745415
   2         (A1)--O          -0.755855          1.946872
   3         (E)--O           -0.399462          1.302503
   4         (E)--O           -0.399462          1.302503
   5         (A1)--O          -0.200853          1.657923
   6         (A1)--V           0.034640          0.847338
   7         (E)--V            0.117336          0.933079
   8         (E)--V            0.117336          0.933079
   9         (E)--V            0.479864          1.534957
  10         (E)--V            0.479864          1.534957
  11         (A1)--V           0.602940          2.546436
  12         (A1)--V           0.700047          2.936994
  13         (E)--V            0.793178          2.602811
  14         (E)--V            0.793178          2.602811
  15         (A1)--V           0.880507          2.328975
  16         (E)--V            1.142779          2.003815
  17         (E)--V            1.142779          2.003815
  18         (A2)--V           1.546444          2.295531
  19         (A1)--V           1.618014          2.629893
  20         (E)--V            1.745996          2.488258
  21         (E)--V            1.745996          2.488258
  22         (E)--V            2.024452          3.584908
  23         (E)--V            2.024452          3.584908
  24         (A1)--V           2.380973          4.220161
  25         (E)--V            2.725533          4.093449
  26         (E)--V            2.725533          4.093449
  27         (A1)--V           2.801742          4.753373
  28         (E)--V            3.240549          5.231128
  29         (E)--V            3.240549          5.231128
 Total kinetic energy from orbitals= 5.591043188890D+01
 No NMR shielding tensors so no spin-rotation constants.
 Leave Link  601 at Mon Jan 22 15:05:00 2018, MaxMem=  1048576000 cpu:         0.4
 (Enter /home/chemsoft/gaussian/g09e01/g09/l701.exe)
 Compute integral first derivatives.
 ... and contract with generalized density number  0.
   6 Symmetry operations used in ECPInt.
 ECPInt:  NShTT=     120 NPrTT=     400 LenC2=     121 LenP2D=     397.
 LDataN:  DoStor=T MaxTD1= 5 Len=  102
 Leave Link  701 at Mon Jan 22 15:05:00 2018, MaxMem=  1048576000 cpu:         0.5
 (Enter /home/chemsoft/gaussian/g09e01/g09/l702.exe)
 L702 exits ... SP integral derivatives will be done elsewhere.
 Leave Link  702 at Mon Jan 22 15:05:00 2018, MaxMem=  1048576000 cpu:         0.1
 (Enter /home/chemsoft/gaussian/g09e01/g09/l703.exe)
 Compute integral first derivatives, UseDBF=T ICtDFT=           0.
 Integral derivatives from FoFJK, PRISM(SPDF).
 Calling FoFJK, ICntrl=      2527 FMM=F ISym2X=1 I1Cent= 4 IOpClX= 0 NMat=1 NMatS=1 NMatT=0.
 FoFJK:  IHMeth= 1 ICntrl=    2527 DoSepK=F KAlg= 0 I1Cent=   4 FoldK=F
 IRaf=         0 NMat=   1 IRICut=       1 DoRegI=T DoRafI=F ISym2E= 1.
 FoFCou: FMM=F IPFlag=           0 FMFlag=      100000 FMFlg1=         800
         NFxFlg=           0 DoJE=F BraDBF=F KetDBF=T FulRan=T
         wScrn=  0.000000 ICntrl=    2527 IOpCl=  0 I1Cent=           4 NGrid=           0
         NMat0=    1 NMatS0=      1 NMatT0=    0 NMatD0=    1 NMtDS0=    0 NMtDT0=    0
 Petite list used in FoFCou.
 Leave Link  703 at Mon Jan 22 15:05:01 2018, MaxMem=  1048576000 cpu:         1.1
 (Enter /home/chemsoft/gaussian/g09e01/g09/l716.exe)
 Dipole        =-4.44089210D-16 0.00000000D+00-6.72132128D-01
 ***** Axes restored to original set *****
 -------------------------------------------------------------------
 Center     Atomic                   Forces (Hartrees/Bohr)
 Number     Number              X              Y              Z
 -------------------------------------------------------------------
      1        7           0.000000000    0.000000000   -0.013141290
      2        1          -0.007697375   -0.000000000    0.004380430
      3        1           0.003848687    0.006666122    0.004380430
      4        1           0.003848687   -0.006666122    0.004380430
 -------------------------------------------------------------------
 Cartesian Forces:  Max     0.013141290 RMS     0.005831000
 Leave Link  716 at Mon Jan 22 15:05:01 2018, MaxMem=  1048576000 cpu:         0.1
 (Enter /home/chemsoft/gaussian/g09e01/g09/l103.exe)

 GradGradGradGradGradGradGradGradGradGradGradGradGradGradGradGradGradGrad
 Berny optimization.
 FormGI is forming the generalized inverse of G from B-inverse, IUseBI=4.
 Internal  Forces:  Max     0.008796683 RMS     0.005817683
 Search for a local minimum.
 Step number   1 out of a maximum of  100
 All quantities printed in internal units (Hartrees-Bohrs-Radians)
 RMS Force = .58177D-02 SwitMx=.10000D-02 MixMth= 1
 Mixed Optimization -- RFO/linear search
 Second derivative matrix not updated -- first step.
 The second derivative matrix:
                          R1        R2        R3        A1        A2
           R1           0.44664
           R2           0.00000   0.44664
           R3           0.00000   0.00000   0.44664
           A1           0.00000   0.00000   0.00000   0.16000
           A2           0.00000   0.00000   0.00000   0.00000   0.16000
           A3           0.00000   0.00000   0.00000   0.00000   0.00000
           D1           0.00000   0.00000   0.00000   0.00000   0.00000
                          A3        D1
           A3           0.16000
           D1           0.00000   0.00791
 ITU=  0
     Eigenvalues ---    0.06638   0.16000   0.16000   0.44664   0.44664
     Eigenvalues ---    0.44664
 RFO step:  Lambda=-5.73655122D-04 EMin= 6.63808657D-02
 Linear search not attempted -- first point.
 Iteration  1 RMS(Cart)=  0.01074184 RMS(Int)=  0.00015344
 Iteration  2 RMS(Cart)=  0.00011171 RMS(Int)=  0.00007748
 Iteration  3 RMS(Cart)=  0.00000002 RMS(Int)=  0.00007748
 ITry= 1 IFail=0 DXMaxC= 1.81D-02 DCOld= 1.00D+10 DXMaxT= 3.00D-01 DXLimC= 3.00D+00 Rises=F
 ClnCor:  largest displacement from symmetrization is 3.48D-04 for atom     4.
 Variable       Old X    -DE/DX   Delta X   Delta X   Delta X     New X
                                 (Linear)    (Quad)   (Total)
    R1        1.92367   0.00880   0.00000   0.01967   0.01976   1.94343
    R2        1.92367   0.00880   0.00000   0.01967   0.01976   1.94343
    R3        1.92367   0.00880   0.00000   0.01967   0.01976   1.94343
    A1        1.84561  -0.00028   0.00000  -0.00982  -0.01035   1.83526
    A2        1.84561  -0.00121   0.00000  -0.01055  -0.01035   1.83526
    A3        1.84561  -0.00121   0.00000  -0.01055  -0.01035   1.83526
    D1       -1.95243   0.00133   0.00000   0.01979   0.01989  -1.93254
         Item               Value     Threshold  Converged?
 Maximum Force            0.008797     0.000450     NO 
 RMS     Force            0.005818     0.000300     NO 
 Maximum Displacement     0.018088     0.001800     NO 
 RMS     Displacement     0.010750     0.001200     NO 
 Predicted change in Energy=-2.869622D-04
 Lowest energy point so far.  Saving SCF results.
 GradGradGradGradGradGradGradGradGradGradGradGradGradGradGradGradGradGrad

 Leave Link  103 at Mon Jan 22 15:05:01 2018, MaxMem=  1048576000 cpu:         0.1
 (Enter /home/chemsoft/gaussian/g09e01/g09/l202.exe)
                          Input orientation:                          
 ---------------------------------------------------------------------
 Center     Atomic      Atomic             Coordinates (Angstroms)
 Number     Number       Type             X           Y           Z
 ---------------------------------------------------------------------
      1          7           0       -0.000000   -0.000000   -0.080144
      2          1           0       -0.943086   -0.000000    0.330027
      3          1           0        0.471543    0.816736    0.330027
      4          1           0        0.471543   -0.816736    0.330027
 ---------------------------------------------------------------------
                    Distance matrix (angstroms):
                    1          2          3          4
     1  N    0.000000
     2  H    1.028421   0.000000
     3  H    1.028421   1.633473   0.000000
     4  H    1.028421   1.633473   1.633473   0.000000
 Stoichiometry    H3N
 Framework group  C3V[C3(N),3SGV(H)]
 Deg. of freedom     2
 Full point group                 C3V     NOp   6
 RotChk:  IX=0 Diff= 2.36D-16
 Largest Abelian subgroup         CS      NOp   2
 Largest concise Abelian subgroup CS      NOp   2
                         Standard orientation:                         
 ---------------------------------------------------------------------
 Center     Atomic      Atomic             Coordinates (Angstroms)
 Number     Number       Type             X           Y           Z
 ---------------------------------------------------------------------
      1          7           0        0.000000    0.000000    0.123051
      2          1           0        0.000000    0.943086   -0.287119
      3          1           0       -0.816736   -0.471543   -0.287119
      4          1           0        0.816736   -0.471543   -0.287119
 ---------------------------------------------------------------------
 Rotational constants (GHZ):    286.6751260    286.6751260    187.9353088
 Leave Link  202 at Mon Jan 22 15:05:01 2018, MaxMem=  1048576000 cpu:         0.0
 (Enter /home/chemsoft/gaussian/g09e01/g09/l301.exe)
 Standard basis: def2SVP (5D, 7F)
 Ernie: Thresh=  0.10000D-02 Tol=  0.10000D-05 Strict=F.
 There are    20 symmetry adapted cartesian basis functions of A'  symmetry.
 There are    10 symmetry adapted cartesian basis functions of A"  symmetry.
 There are    19 symmetry adapted basis functions of A'  symmetry.
 There are    10 symmetry adapted basis functions of A"  symmetry.
    29 basis functions,    46 primitive gaussians,    30 cartesian basis functions
     5 alpha electrons        5 beta electrons
       nuclear repulsion energy        11.7774861573 Hartrees.
 IExCor= 1009 DFT=T Ex=PBE Corr=PBE ExCW=0 ScaHFX=  0.000000
 ScaDFX=  1.000000  1.000000  1.000000  1.000000 ScalE2=  1.000000  1.000000
 IRadAn=      5 IRanWt=     -1 IRanGd=            0 ICorTp=0 IEmpDi=  4
 NAtoms=    4 NActive=    4 NUniq=    2 SFac= 4.00D+00 NAtFMM=   60 NAOKFM=F Big=F
 Integral buffers will be    131072 words long.
 Raffenetti 2 integral format.
 Two-electron integral symmetry is turned on.
 Standard density basis: W06 (5D, 7F)
    82 Density fitting functions
 There are    82 symmetry adapted density basis functions of A   symmetry.
 Leave Link  301 at Mon Jan 22 15:05:01 2018, MaxMem=  1048576000 cpu:         0.4
 (Enter /home/chemsoft/gaussian/g09e01/g09/l302.exe)
 NPDir=0 NMtPBC=     1 NCelOv=     1 NCel=       1 NClECP=     1 NCelD=      1
         NCelK=      1 NCelE2=     1 NClLst=     1 CellRange=     0.0.
 One-electron integrals computed using PRISM.
 One-electron integral symmetry used in STVInt
   6 Symmetry operations used in ECPInt.
 ECPInt:  NShTT=     120 NPrTT=     400 LenC2=     121 LenP2D=     397.
 LDataN:  DoStor=T MaxTD1= 4 Len=   56
 NBasis=    29 RedAO= T EigKep=  3.60D-02  NBF=    19    10
 NBsUse=    29 1.00D-06 EigRej= -1.00D+00 NBFU=    19    10
 NBasis=       29 NBas6D=       30 NTT=         435   NTT6D=      465
 NDBShl=       30 NDBF=         82 NDBF6D=       97  NNucDB=        0
 IDenFi=        2 ISolve=        0 FullAP=F BlkAPC=T NucTyp=        0
 TolInv= 1.00D-06 TolIt=  1.00D-10 IR12=0.
 FoFCou: FMM=F IPFlag=           0 FMFlag=           0 FMFlg1=           0
         NFxFlg=           0 DoJE=F BraDBF=T KetDBF=T FulRan=T
         wScrn=  0.000000 ICntrl=     600 IOpCl=  3 I1Cent=           6 NGrid=           0
         NMat0=    1 NMatS0=     97 NMatT0=    0 NMatD0=    1 NMtDS0=    0 NMtDT0=    0
 Petite list used in FoFCou.
 DBF EigKep=  2.26D-04 EigRej= -1.00D+00
 NDBF=     82  NBFD=    82
 NRank=    82 NBFDU=    82
 S*AI*S=  4.69637282502    
 Precomputing XC quadrature grid using
 IXCGrd= 4 IRadAn=           5 IRanWt=          -1 IRanGd=           0 AccXCQ= 0.00D+00.
 Generated NRdTot=       0 NPtTot=           0 NUsed=           0 NTot=          32
 NSgBfM=    30    30    30    30    30 MxSgAt=     4 MxSgA2=     4.
 Leave Link  302 at Mon Jan 22 15:05:02 2018, MaxMem=  1048576000 cpu:         0.8
 (Enter /home/chemsoft/gaussian/g09e01/g09/l303.exe)
 DipDrv:  MaxL=1.
 Leave Link  303 at Mon Jan 22 15:05:02 2018, MaxMem=  1048576000 cpu:         0.1
 (Enter /home/chemsoft/gaussian/g09e01/g09/l401.exe)
 Initial guess from the checkpoint file:  "ammonia.pbesvp.chk"
 B after Tr=     0.000000   -0.000000    0.000000
         Rot=    1.000000    0.000000   -0.000000   -0.000000 Ang=   0.00 deg.
 Guess basis will be translated and rotated to current coordinates.
 Recovered     1 saved fitting vectors from chk file.
 JPrj=2 DoOrth=T DoCkMO=T.
 Initial guess orbital symmetries:
       Occupied  (A1) (A1) (E) (E) (A1)
       Virtual   (?A) (?A) (?A) (?A) (?A) (?A) (?A) (?A) (?A) (?A)
                 (?A) (?A) (?A) (?A) (?A) (?A) (?A) (?A) (?A) (?A)
                 (?A) (?A) (?A) (?A)
 The electronic state of the initial guess is 1-A1.
 Leave Link  401 at Mon Jan 22 15:05:02 2018, MaxMem=  1048576000 cpu:         0.4
 (Enter /home/chemsoft/gaussian/g09e01/g09/l502.exe)
 Closed shell SCF:
 Density fitting will be used, IDenFit= 2 NucTyp=  0.
 Using DIIS extrapolation, IDIIS=  1040.
 Integral symmetry usage will be decided dynamically.
 IVT=      257426 IEndB=      257426 NGot=  1048576000 MDV=  1048570505
 LenX=  1048570505 LenY=  1048569164
 Requested convergence on RMS density matrix=1.00D-08 within 500 cycles.
 Requested convergence on MAX density matrix=1.00D-06.
 Requested convergence on             energy=1.00D-06.
 No special actions if energy rises.
 Fock matrices will be formed incrementally for  20 cycles.

 Cycle   1  Pass 1  IDiag  1:
 FoFCou: FMM=F IPFlag=           0 FMFlag=      100000 FMFlg1=           0
         NFxFlg=           0 DoJE=T BraDBF=T KetDBF=F FulRan=T
         wScrn=  0.000000 ICntrl=     500 IOpCl=  0 I1Cent=           5 NGrid=           0
         NMat0=    1 NMatS0=      1 NMatT0=    0 NMatD0=    1 NMtDS0=    0 NMtDT0=    0
 Petite list used in FoFCou.
 FoFJK:  IHMeth= 1 ICntrl=     500 DoSepK=F KAlg= 0 I1Cent=   4 FoldK=F
 IRaf= 990000000 NMat=   1 IRICut=       1 DoRegI=T DoRafI=F ISym2E= 1.
 E= -56.4331172155920    
 DIIS: error= 1.36D-03 at cycle   1 NSaved=   1.
 NSaved= 1 IEnMin= 1 EnMin= -56.4331172155920     IErMin= 1 ErrMin= 1.36D-03
 ErrMax= 1.36D-03  0.00D+00 EMaxC= 1.00D-01 BMatC= 7.55D-05 BMatP= 7.55D-05
 IDIUse=3 WtCom= 9.86D-01 WtEn= 1.36D-02
 Coeff-Com:  0.100D+01
 Coeff-En:   0.100D+01
 Coeff:      0.100D+01
 Gap=     0.592 Goal=   None    Shift=    0.000
 GapD=    0.592 DampG=2.000 DampE=1.000 DampFc=2.0000 IDamp=-1.
 RMSDP=8.04D-04 MaxDP=9.04D-03              OVMax= 7.80D-03

 Cycle   2  Pass 1  IDiag  1:
 RMSU=  8.02D-04    CP:  1.00D+00
 E= -56.4331851984101     Delta-E=       -0.000067982818 Rises=F Damp=F
 DIIS: error= 1.18D-03 at cycle   2 NSaved=   2.
 NSaved= 2 IEnMin= 2 EnMin= -56.4331851984101     IErMin= 2 ErrMin= 1.18D-03
 ErrMax= 1.18D-03  0.00D+00 EMaxC= 1.00D-01 BMatC= 3.18D-05 BMatP= 7.55D-05
 IDIUse=3 WtCom= 9.88D-01 WtEn= 1.18D-02
 Coeff-Com:  0.345D+00 0.655D+00
 Coeff-En:   0.000D+00 0.100D+01
 Coeff:      0.341D+00 0.659D+00
 Gap=     0.235 Goal=   None    Shift=    0.000
 RMSDP=2.84D-04 MaxDP=2.58D-03 DE=-6.80D-05 OVMax= 2.82D-03

 Cycle   3  Pass 1  IDiag  1:
 RMSU=  2.14D-04    CP:  1.00D+00  7.67D-01
 E= -56.4331969609540     Delta-E=       -0.000011762544 Rises=F Damp=F
 DIIS: error= 9.75D-04 at cycle   3 NSaved=   3.
 NSaved= 3 IEnMin= 3 EnMin= -56.4331969609540     IErMin= 3 ErrMin= 9.75D-04
 ErrMax= 9.75D-04  0.00D+00 EMaxC= 1.00D-01 BMatC= 1.96D-05 BMatP= 3.18D-05
 IDIUse=3 WtCom= 9.90D-01 WtEn= 9.75D-03
 Coeff-Com:  0.356D-01 0.432D+00 0.532D+00
 Coeff-En:   0.000D+00 0.392D+00 0.608D+00
 Coeff:      0.353D-01 0.432D+00 0.533D+00
 Gap=     0.234 Goal=   None    Shift=    0.000
 RMSDP=1.19D-04 MaxDP=1.11D-03 DE=-1.18D-05 OVMax= 1.26D-03

 Cycle   4  Pass 1  IDiag  1:
 RMSU=  2.34D-05    CP:  1.00D+00  8.42D-01  5.31D-01
 E= -56.4332136814990     Delta-E=       -0.000016720545 Rises=F Damp=F
 DIIS: error= 7.45D-05 at cycle   4 NSaved=   4.
 NSaved= 4 IEnMin= 4 EnMin= -56.4332136814990     IErMin= 4 ErrMin= 7.45D-05
 ErrMax= 7.45D-05  0.00D+00 EMaxC= 1.00D-01 BMatC= 1.28D-07 BMatP= 1.96D-05
 IDIUse=1 WtCom= 1.00D+00 WtEn= 0.00D+00
 Coeff-Com:  0.288D-02 0.123D+00 0.176D+00 0.698D+00
 Coeff:      0.288D-02 0.123D+00 0.176D+00 0.698D+00
 Gap=     0.235 Goal=   None    Shift=    0.000
 RMSDP=9.55D-06 MaxDP=6.61D-05 DE=-1.67D-05 OVMax= 9.90D-05

 Cycle   5  Pass 1  IDiag  1:
 RMSU=  3.10D-06    CP:  1.00D+00  8.47D-01  5.52D-01  7.23D-01
 E= -56.4332137879508     Delta-E=       -0.000000106452 Rises=F Damp=F
 DIIS: error= 3.62D-06 at cycle   5 NSaved=   5.
 NSaved= 5 IEnMin= 5 EnMin= -56.4332137879508     IErMin= 5 ErrMin= 3.62D-06
 ErrMax= 3.62D-06  0.00D+00 EMaxC= 1.00D-01 BMatC= 2.92D-10 BMatP= 1.28D-07
 IDIUse=1 WtCom= 1.00D+00 WtEn= 0.00D+00
 Coeff-Com:  0.237D-04 0.112D-01 0.137D-01 0.795D-01 0.896D+00
 Coeff:      0.237D-04 0.112D-01 0.137D-01 0.795D-01 0.896D+00
 Gap=     0.235 Goal=   None    Shift=    0.000
 RMSDP=5.68D-07 MaxDP=3.70D-06 DE=-1.06D-07 OVMax= 5.70D-06

 Cycle   6  Pass 1  IDiag  1:
 RMSU=  1.28D-07    CP:  1.00D+00  8.47D-01  5.50D-01  7.24D-01  8.94D-01
 E= -56.4332137882337     Delta-E=       -0.000000000283 Rises=F Damp=F
 DIIS: error= 4.94D-08 at cycle   6 NSaved=   6.
 NSaved= 6 IEnMin= 6 EnMin= -56.4332137882337     IErMin= 6 ErrMin= 4.94D-08
 ErrMax= 4.94D-08  0.00D+00 EMaxC= 1.00D-01 BMatC= 1.15D-13 BMatP= 2.92D-10
 IDIUse=1 WtCom= 1.00D+00 WtEn= 0.00D+00
 Coeff-Com:  0.130D-06 0.630D-03 0.702D-03 0.526D-02 0.768D-01 0.917D+00
 Coeff:      0.130D-06 0.630D-03 0.702D-03 0.526D-02 0.768D-01 0.917D+00
 Gap=     0.235 Goal=   None    Shift=    0.000
 RMSDP=1.89D-08 MaxDP=1.44D-07 DE=-2.83D-10 OVMax= 2.43D-07

 Cycle   7  Pass 1  IDiag  1:
 RMSU=  9.91D-09    CP:  1.00D+00  8.47D-01  5.50D-01  7.25D-01  8.98D-01
                    CP:  9.27D-01
 E= -56.4332137882340     Delta-E=       -0.000000000000 Rises=F Damp=F
 DIIS: error= 9.01D-09 at cycle   7 NSaved=   7.
 NSaved= 7 IEnMin= 7 EnMin= -56.4332137882340     IErMin= 7 ErrMin= 9.01D-09
 ErrMax= 9.01D-09  0.00D+00 EMaxC= 1.00D-01 BMatC= 1.55D-15 BMatP= 1.15D-13
 IDIUse=1 WtCom= 1.00D+00 WtEn= 0.00D+00
 Coeff-Com: -0.354D-06 0.965D-05 0.118D-04 0.173D-03 0.392D-02 0.761D-01
 Coeff-Com:  0.920D+00
 Coeff:     -0.354D-06 0.965D-05 0.118D-04 0.173D-03 0.392D-02 0.761D-01
 Coeff:      0.920D+00
 Gap=     0.235 Goal=   None    Shift=    0.000
 RMSDP=1.34D-09 MaxDP=1.02D-08 DE=-3.41D-13 OVMax= 1.87D-08

 SCF Done:  E(RPBE-PBE) =  -56.4332137882     A.U. after    7 cycles
            NFock=  7  Conv=0.13D-08     -V/T= 2.0100
 KE= 5.587294747290D+01 PE=-1.552065839926D+02 EE= 3.112293657413D+01
 Leave Link  502 at Mon Jan 22 15:05:06 2018, MaxMem=  1048576000 cpu:         7.2
 (Enter /home/chemsoft/gaussian/g09e01/g09/l508.exe)
 QCSCF skips out because SCF is already converged.
 Leave Link  508 at Mon Jan 22 15:05:06 2018, MaxMem=  1048576000 cpu:         0.0
 (Enter /home/chemsoft/gaussian/g09e01/g09/l701.exe)
 Compute integral first derivatives.
 ... and contract with generalized density number  0.
   6 Symmetry operations used in ECPInt.
 ECPInt:  NShTT=     120 NPrTT=     400 LenC2=     121 LenP2D=     397.
 LDataN:  DoStor=T MaxTD1= 5 Len=  102
 Leave Link  701 at Mon Jan 22 15:05:06 2018, MaxMem=  1048576000 cpu:         0.5
 (Enter /home/chemsoft/gaussian/g09e01/g09/l702.exe)
 L702 exits ... SP integral derivatives will be done elsewhere.
 Leave Link  702 at Mon Jan 22 15:05:06 2018, MaxMem=  1048576000 cpu:         0.1
 (Enter /home/chemsoft/gaussian/g09e01/g09/l703.exe)
 Compute integral first derivatives, UseDBF=T ICtDFT=           0.
 Integral derivatives from FoFJK, PRISM(SPDF).
 Calling FoFJK, ICntrl=      2527 FMM=F ISym2X=1 I1Cent= 4 IOpClX= 0 NMat=1 NMatS=1 NMatT=0.
 FoFJK:  IHMeth= 1 ICntrl=    2527 DoSepK=F KAlg= 0 I1Cent=   4 FoldK=F
 IRaf=         0 NMat=   1 IRICut=       1 DoRegI=T DoRafI=F ISym2E= 1.
 FoFCou: FMM=F IPFlag=           0 FMFlag=      100000 FMFlg1=         800
         NFxFlg=           0 DoJE=F BraDBF=F KetDBF=T FulRan=T
         wScrn=  0.000000 ICntrl=    2527 IOpCl=  0 I1Cent=           4 NGrid=           0
         NMat0=    1 NMatS0=      1 NMatT0=    0 NMatD0=    1 NMtDS0=    0 NMtDT0=    0
 Petite list used in FoFCou.
 Leave Link  703 at Mon Jan 22 15:05:07 2018, MaxMem=  1048576000 cpu:         1.1
 (Enter /home/chemsoft/gaussian/g09e01/g09/l716.exe)
 Dipole        =-4.44089210D-16-2.22044605D-16-6.81214529D-01
 ***** Axes restored to original set *****
 -------------------------------------------------------------------
 Center     Atomic                   Forces (Hartrees/Bohr)
 Number     Number              X              Y              Z
 -------------------------------------------------------------------
      1        7          -0.000000000    0.000000000   -0.003863581
      2        1          -0.000259710   -0.000000000    0.001287860
      3        1           0.000129855    0.000224916    0.001287860
      4        1           0.000129855   -0.000224916    0.001287860
 -------------------------------------------------------------------
 Cartesian Forces:  Max     0.003863581 RMS     0.001294390
 Leave Link  716 at Mon Jan 22 15:05:07 2018, MaxMem=  1048576000 cpu:         0.1
 (Enter /home/chemsoft/gaussian/g09e01/g09/l103.exe)

 GradGradGradGradGradGradGradGradGradGradGradGradGradGradGradGradGradGrad
 Berny optimization.
 Using GEDIIS/GDIIS optimizer.
 FormGI is forming the generalized inverse of G from B-inverse, IUseBI=4.
 Internal  Forces:  Max     0.001374937 RMS     0.001005940
 Search for a local minimum.
 Step number   2 out of a maximum of  100
 All quantities printed in internal units (Hartrees-Bohrs-Radians)
 RMS Force = .10059D-02 SwitMx=.10000D-02 MixMth= 1
 Mixed Optimization -- RFO/linear search
 Update second derivatives using D2CorX and points    1    2
 DE= -3.36D-04 DEPred=-2.87D-04 R= 1.17D+00
 TightC=F SS=  1.41D+00  RLast= 4.35D-02 DXNew= 5.0454D-01 1.3037D-01
 Trust test= 1.17D+00 RLast= 4.35D-02 DXMaxT set to 3.00D-01
 The second derivative matrix:
                          R1        R2        R3        A1        A2
           R1           0.44845
           R2           0.00180   0.44845
           R3           0.00180   0.00180   0.44845
           A1           0.02594   0.02594   0.02594   0.15526
           A2           0.02684   0.02684   0.02684  -0.00474   0.15527
           A3           0.02684   0.02684   0.02684  -0.00474  -0.00473
           D1          -0.00325  -0.00325  -0.00325   0.00045   0.00044
                          A3        D1
           A3           0.15527
           D1           0.00044   0.00787
 ITU=  1  0
 Use linear search instead of GDIIS.
     Eigenvalues ---    0.05625   0.15292   0.16000   0.44664   0.44664
     Eigenvalues ---    0.46261
 RFO step:  Lambda=-7.21950441D-05 EMin= 5.62503196D-02
 Quartic linear search produced a step of  0.22560.
 Iteration  1 RMS(Cart)=  0.00915220 RMS(Int)=  0.00022151
 Iteration  2 RMS(Cart)=  0.00013400 RMS(Int)=  0.00017045
 Iteration  3 RMS(Cart)=  0.00000001 RMS(Int)=  0.00017045
 ITry= 1 IFail=0 DXMaxC= 1.90D-02 DCOld= 1.00D+10 DXMaxT= 3.00D-01 DXLimC= 3.00D+00 Rises=F
 ClnCor:  largest displacement from symmetrization is 1.91D-04 for atom     4.
 Variable       Old X    -DE/DX   Delta X   Delta X   Delta X     New X
                                 (Linear)    (Quad)   (Total)
    R1        1.94343   0.00075   0.00446   0.00014   0.00465   1.94809
    R2        1.94343   0.00075   0.00446   0.00014   0.00465   1.94809
    R3        1.94343   0.00075   0.00446   0.00014   0.00465   1.94809
    A1        1.83526  -0.00032  -0.00233  -0.01222  -0.01508   1.82018
    A2        1.83526  -0.00130  -0.00233  -0.01278  -0.01508   1.82018
    A3        1.83526  -0.00130  -0.00233  -0.01278  -0.01508   1.82018
    D1       -1.93254   0.00137   0.00449   0.02356   0.02789  -1.90465
         Item               Value     Threshold  Converged?
 Maximum Force            0.001375     0.000450     NO 
 RMS     Force            0.001006     0.000300     NO 
 Maximum Displacement     0.018952     0.001800     NO 
 RMS     Displacement     0.009178     0.001200     NO 
 Predicted change in Energy=-4.405285D-05
 Lowest energy point so far.  Saving SCF results.
 GradGradGradGradGradGradGradGradGradGradGradGradGradGradGradGradGradGrad

 Leave Link  103 at Mon Jan 22 15:05:07 2018, MaxMem=  1048576000 cpu:         0.0
 (Enter /home/chemsoft/gaussian/g09e01/g09/l202.exe)
                          Input orientation:                          
 ---------------------------------------------------------------------
 Center     Atomic      Atomic             Coordinates (Angstroms)
 Number     Number       Type             X           Y           Z
 ---------------------------------------------------------------------
      1          7           0       -0.000000    0.000000   -0.090173
      2          1           0       -0.939862   -0.000000    0.333361
      3          1           0        0.469931    0.813944    0.333361
      4          1           0        0.469931   -0.813944    0.333361
 ---------------------------------------------------------------------
                    Distance matrix (angstroms):
                    1          2          3          4
     1  N    0.000000
     2  H    1.030884   0.000000
     3  H    1.030884   1.627888   0.000000
     4  H    1.030884   1.627888   1.627888   0.000000
 Stoichiometry    H3N
 Framework group  C3V[C3(N),3SGV(H)]
 Deg. of freedom     2
 Full point group                 C3V     NOp   6
 RotChk:  IX=0 Diff= 2.36D-16
 Largest Abelian subgroup         CS      NOp   2
 Largest concise Abelian subgroup CS      NOp   2
                         Standard orientation:                         
 ---------------------------------------------------------------------
 Center     Atomic      Atomic             Coordinates (Angstroms)
 Number     Number       Type             X           Y           Z
 ---------------------------------------------------------------------
      1          7           0        0.000000    0.000000    0.127060
      2          1           0        0.000000    0.939862   -0.296474
      3          1           0       -0.813944   -0.469931   -0.296474
      4          1           0        0.813944   -0.469931   -0.296474
 ---------------------------------------------------------------------
 Rotational constants (GHZ):    283.6937107    283.6937107    189.2268567
 Leave Link  202 at Mon Jan 22 15:05:07 2018, MaxMem=  1048576000 cpu:         0.0
 (Enter /home/chemsoft/gaussian/g09e01/g09/l301.exe)
 Standard basis: def2SVP (5D, 7F)
 Ernie: Thresh=  0.10000D-02 Tol=  0.10000D-05 Strict=F.
 There are    20 symmetry adapted cartesian basis functions of A'  symmetry.
 There are    10 symmetry adapted cartesian basis functions of A"  symmetry.
 There are    19 symmetry adapted basis functions of A'  symmetry.
 There are    10 symmetry adapted basis functions of A"  symmetry.
    29 basis functions,    46 primitive gaussians,    30 cartesian basis functions
     5 alpha electrons        5 beta electrons
       nuclear repulsion energy        11.7550096589 Hartrees.
 IExCor= 1009 DFT=T Ex=PBE Corr=PBE ExCW=0 ScaHFX=  0.000000
 ScaDFX=  1.000000  1.000000  1.000000  1.000000 ScalE2=  1.000000  1.000000
 IRadAn=      5 IRanWt=     -1 IRanGd=            0 ICorTp=0 IEmpDi=  4
 NAtoms=    4 NActive=    4 NUniq=    2 SFac= 4.00D+00 NAtFMM=   60 NAOKFM=F Big=F
 Integral buffers will be    131072 words long.
 Raffenetti 2 integral format.
 Two-electron integral symmetry is turned on.
 Standard density basis: W06 (5D, 7F)
    82 Density fitting functions
 There are    82 symmetry adapted density basis functions of A   symmetry.
 Leave Link  301 at Mon Jan 22 15:05:07 2018, MaxMem=  1048576000 cpu:         0.4
 (Enter /home/chemsoft/gaussian/g09e01/g09/l302.exe)
 NPDir=0 NMtPBC=     1 NCelOv=     1 NCel=       1 NClECP=     1 NCelD=      1
         NCelK=      1 NCelE2=     1 NClLst=     1 CellRange=     0.0.
 One-electron integrals computed using PRISM.
 One-electron integral symmetry used in STVInt
[...]
       Occupied  (A1) (A1) (E) (E) (A1)
       Virtual   (A1) (E) (E) (E) (E) (A1) (A1) (E) (E) (A1) (E)
                 (E) (A2) (A1) (E) (E) (E) (E) (A1) (E) (E) (A1)
                 (E) (E)
 The electronic state is 1-A1.
 Alpha  occ. eigenvalues --  -13.96883  -0.75460  -0.39482  -0.39482  -0.20552
 Alpha virt. eigenvalues --    0.03108   0.11326   0.11326   0.47180   0.47180
 Alpha virt. eigenvalues --    0.59637   0.69839   0.79093   0.79093   0.89348
 Alpha virt. eigenvalues --    1.13490   1.13490   1.54707   1.59271   1.73736
 Alpha virt. eigenvalues --    1.73736   1.99180   1.99180   2.39010   2.69912
 Alpha virt. eigenvalues --    2.69912   2.75243   3.23791   3.23791
     Molecular Orbital Coefficients:
                           1         2         3         4         5
                        (A1)--O   (A1)--O   (E)--O    (E)--O    (A1)--O
     Eigenvalues --   -13.96883  -0.75460  -0.39482  -0.39482  -0.20552
   1 1   N  1S          0.98807   0.25881   0.00000   0.00000  -0.10623
   2        2S         -0.04541   0.51812   0.00000   0.00000  -0.21626
   3        3S          0.01860   0.17026  -0.00000   0.00000  -0.35135
   4        4PX         0.00000   0.00000   0.00000   0.46650   0.00000
   5        4PY         0.00000  -0.00000   0.46650   0.00000  -0.00000
   6        4PZ        -0.00404   0.11839   0.00000   0.00000   0.53665
   7        5PX         0.00000   0.00000   0.00000  -0.19203   0.00000
   8        5PY        -0.00000  -0.00000  -0.19203   0.00000  -0.00000
   9        5PZ        -0.00049  -0.00769   0.00000   0.00000  -0.42749
  10        6D 0        0.00130  -0.00135  -0.00000   0.00000   0.02250
  11        6D+1        0.00000   0.00000   0.00000   0.02152   0.00000
  12        6D-1       -0.00000   0.00000   0.02152   0.00000   0.00000
  13        6D+2        0.00000   0.00000   0.00838   0.00000  -0.00000
  14        6D-2        0.00000   0.00000   0.00000   0.00838   0.00000
  15 2   H  1S          0.00341   0.19441  -0.37416   0.00000   0.09367
  16        2S         -0.00297   0.02519  -0.15967   0.00000   0.06441
  17        3PX         0.00000   0.00000   0.00000  -0.02214   0.00000
  18        3PY        -0.00341  -0.02677   0.01642   0.00000  -0.01002
  19        3PZ         0.00155   0.00428  -0.01169   0.00000  -0.02250
  20 3   H  1S          0.00341   0.19441   0.18708   0.32403   0.09367
  21        2S         -0.00297   0.02519   0.07984   0.13828   0.06441
  22        3PX         0.00296   0.02318   0.01670   0.00678   0.00868
  23        3PY         0.00171   0.01338  -0.01250   0.01670   0.00501
  24        3PZ         0.00155   0.00428   0.00584   0.01012  -0.02250
  25 4   H  1S          0.00341   0.19441   0.18708  -0.32403   0.09367
  26        2S         -0.00297   0.02519   0.07984  -0.13828   0.06441
  27        3PX        -0.00296  -0.02318  -0.01670   0.00678  -0.00868
  28        3PY         0.00171   0.01338  -0.01250  -0.01670   0.00501
  29        3PZ         0.00155   0.00428   0.00584  -0.01012  -0.02250
                           6         7         8         9        10
                        (A1)--V   (E)--V    (E)--V    (E)--V    (E)--V
     Eigenvalues --     0.03108   0.11326   0.11326   0.47180   0.47180
   1 1   N  1S          0.12780   0.00000   0.00000   0.00000  -0.00000
   2        2S          0.22057   0.00000   0.00000   0.00000  -0.00000
   3        3S          1.42543   0.00000   0.00000   0.00000   0.00000
   4        4PX         0.00000   0.00000  -0.40331  -0.15188   0.00000
   5        4PY        -0.00000   0.40331   0.00000   0.00000   0.15188
   6        4PZ         0.20616   0.00000   0.00000   0.00000  -0.00000
   7        5PX         0.00000   0.00000   0.76928   0.51267   0.00000
   8        5PY         0.00000  -0.76928   0.00000   0.00000  -0.51267
   9        5PZ        -0.36075  -0.00000   0.00000   0.00000   0.00000
  10        6D 0        0.00521  -0.00000   0.00000   0.00000  -0.00000
  11        6D+1        0.00000   0.00000  -0.00860   0.06726   0.00000
  12        6D-1       -0.00000   0.00860   0.00000   0.00000  -0.06726
  13        6D+2        0.00000  -0.00747   0.00000   0.00000  -0.09245
  14        6D-2        0.00000   0.00000   0.00747   0.09245   0.00000
  15 2   H  1S         -0.08688   0.13879   0.00000   0.00000   1.06689
  16        2S         -0.75815   1.53925   0.00000   0.00000  -0.83164
  17        3PX         0.00000   0.00000   0.00728   0.08983   0.00000
  18        3PY        -0.00621   0.00636   0.00000   0.00000   0.05113
  19        3PZ         0.00143  -0.00708   0.00000   0.00000  -0.05122
  20 3   H  1S         -0.08688  -0.06940   0.12020   0.92395  -0.53344
  21        2S         -0.75815  -0.76963   1.33303  -0.72022   0.41582
  22        3PX         0.00538   0.00591  -0.00295  -0.01589   0.06104
  23        3PY         0.00310  -0.00387  -0.00591  -0.06104  -0.05459
  24        3PZ         0.00143   0.00354  -0.00613  -0.04436   0.02561
  25 4   H  1S         -0.08688  -0.06940  -0.12020  -0.92395  -0.53344
  26        2S         -0.75815  -0.76963  -1.33303   0.72022   0.41582
  27        3PX        -0.00538  -0.00591  -0.00295  -0.01589  -0.06104
  28        3PY         0.00310  -0.00387   0.00591   0.06104  -0.05459
  29        3PZ         0.00143   0.00354   0.00613   0.04436   0.02561
                          11        12        13        14        15
                        (A1)--V   (A1)--V   (E)--V    (E)--V    (A1)--V
     Eigenvalues --     0.59637   0.69839   0.79093   0.79093   0.89348
   1 1   N  1S         -0.17979  -0.16707   0.00000  -0.00000  -0.18172
   2        2S         -0.83179  -0.84007   0.00000  -0.00000  -1.49884
   3        3S          1.31909   0.77245   0.00000   0.00000   3.58297
   4        4PX         0.00000   0.00000   0.89308   0.00000   0.00000
   5        4PY        -0.00000  -0.00000   0.00000   0.89308  -0.00000
   6        4PZ        -0.39932   0.84840   0.00000   0.00000  -0.24328
   7        5PX         0.00000   0.00000   1.73814   0.00000   0.00000
   8        5PY        -0.00000  -0.00000   0.00000   1.73814  -0.00000
   9        5PZ        -0.30971   0.96266   0.00000  -0.00000  -0.91658
  10        6D 0       -0.07469   0.00045   0.00000   0.00000   0.10124
  11        6D+1        0.00000   0.00000  -0.03453   0.00000   0.00000
  12        6D-1        0.00000   0.00000   0.00000  -0.03453  -0.00000
  13        6D+2        0.00000   0.00000   0.00000  -0.03725   0.00000
  14        6D-2        0.00000   0.00000  -0.03725   0.00000   0.00000
  15 2   H  1S          0.57566   0.16421   0.00000  -0.07298  -0.65547
  16        2S         -0.63775  -0.11727   0.00000  -1.24234  -0.54750
  17        3PX         0.00000   0.00000   0.00682   0.00000   0.00000
  18        3PY         0.17343  -0.01368   0.00000   0.20003  -0.01013
  19        3PZ         0.00163   0.01077   0.00000  -0.09785  -0.16732
  20 3   H  1S          0.57566   0.16421   0.06320   0.03649  -0.65547
  21        2S         -0.63775  -0.11727   1.07590   0.62117  -0.54750
  22        3PX        -0.15020   0.01185   0.15173   0.08366   0.00877
  23        3PY        -0.08672   0.00684   0.08366   0.05513   0.00506
  24        3PZ         0.00163   0.01077   0.08474   0.04892  -0.16732
  25 4   H  1S          0.57566   0.16421  -0.06320   0.03649  -0.65547
  26        2S         -0.63775  -0.11727  -1.07590   0.62117  -0.54750
  27        3PX         0.15020  -0.01185   0.15173  -0.08366  -0.00877
  28        3PY        -0.08672   0.00684  -0.08366   0.05513   0.00506
  29        3PZ         0.00163   0.01077  -0.08474   0.04892  -0.16732
                          16        17        18        19        20
                        (E)--V    (E)--V    (A2)--V   (A1)--V   (E)--V
     Eigenvalues --     1.13490   1.13490   1.54707   1.59271   1.73736
   1 1   N  1S          0.00000   0.00000   0.00000  -0.09236   0.00000
   2        2S          0.00000   0.00000   0.00000  -0.86905   0.00000
   3        3S          0.00000  -0.00000   0.00000   1.83549   0.00000
   4        4PX         0.01806   0.00000   0.00000   0.00000   0.00337
   5        4PY         0.00000  -0.01806   0.00000  -0.00000   0.00000
   6        4PZ         0.00000  -0.00000   0.00000  -0.09964   0.00000
   7        5PX        -0.33898   0.00000   0.00000   0.00000   0.92233
   8        5PY         0.00000   0.33898   0.00000   0.00000   0.00000
   9        5PZ         0.00000   0.00000   0.00000  -1.06743   0.00000
  10        6D 0        0.00000  -0.00000   0.00000  -0.30739   0.00000
  11        6D+1       -0.19730   0.00000   0.00000   0.00000   0.09965
  12        6D-1        0.00000   0.19730   0.00000   0.00000   0.00000
  13        6D+2        0.00000  -0.16294   0.00000  -0.00000   0.00000
  14        6D-2        0.16294   0.00000   0.00000   0.00000  -0.05412
  15 2   H  1S          0.00000  -0.16015   0.00000  -0.54103   0.00000
  16        2S          0.00000  -0.05984   0.00000  -0.19821   0.00000
  17        3PX         0.49131   0.00000   0.61189   0.00000  -0.63566
  18        3PY         0.00000   0.21663   0.00000   0.07177   0.00000
  19        3PZ         0.00000   0.44361   0.00000   0.51752   0.00000
  20 3   H  1S         -0.13869   0.08007  -0.00000  -0.54103   0.34090
  21        2S         -0.05182   0.02992   0.00000  -0.19821   0.15708
  22        3PX        -0.03965   0.30655  -0.30595  -0.06215  -0.38335
  23        3PY        -0.30655  -0.31433   0.52991  -0.03588   0.14567
  24        3PZ         0.38418  -0.22180   0.00000   0.51752   0.53314
  25 4   H  1S          0.13869   0.08007   0.00000  -0.54103  -0.34090
  26        2S          0.05182   0.02992  -0.00000  -0.19821  -0.15708
  27        3PX        -0.03965  -0.30655  -0.30595   0.06215  -0.38335
  28        3PY         0.30655  -0.31433  -0.52991  -0.03588  -0.14567
  29        3PZ        -0.38418  -0.22180  -0.00000   0.51752  -0.53314
                          21        22        23        24        25
                        (E)--V    (E)--V    (E)--V    (A1)--V   (E)--V
     Eigenvalues --     1.73736   1.99180   1.99180   2.39010   2.69912
   1 1   N  1S          0.00000   0.00000   0.00000   0.16693   0.00000
   2        2S         -0.00000   0.00000   0.00000   0.69871   0.00000
   3        3S          0.00000   0.00000  -0.00000   1.72696   0.00000
   4        4PX         0.00000   0.68019   0.00000   0.00000   0.02689
   5        4PY         0.00337   0.00000  -0.68019   0.00000   0.00000
   6        4PZ         0.00000   0.00000   0.00000   0.47886   0.00000
   7        5PX         0.00000  -0.03777   0.00000   0.00000   0.36920
   8        5PY         0.92233   0.00000   0.03777   0.00000   0.00000
   9        5PZ        -0.00000   0.00000  -0.00000  -0.88023   0.00000
  10        6D 0       -0.00000   0.00000  -0.00000   0.41142   0.00000
  11        6D+1        0.00000  -0.19889   0.00000   0.00000  -0.75831
  12        6D-1        0.09965   0.00000   0.19889  -0.00000   0.00000
  13        6D+2       -0.05412   0.00000   0.21906   0.00000   0.00000
  14        6D-2        0.00000  -0.21906   0.00000   0.00000   0.78532
  15 2   H  1S         -0.39364   0.00000  -0.06068  -0.69149   0.00000
  16        2S         -0.18138   0.00000  -0.38296  -0.31605   0.00000
  17        3PX         0.00000   0.05537   0.00000   0.00000  -0.54961
  18        3PY        -0.29925   0.00000   0.78279   0.80113   0.00000
  19        3PZ        -0.61562   0.00000  -0.40650   0.08641   0.00000
  20 3   H  1S          0.19682  -0.05255   0.03034  -0.69149   0.09771
  21        2S          0.09069  -0.33165   0.19148  -0.31605   0.07629
  22        3PX         0.14567  -0.57325   0.36293  -0.69380  -0.06380
  23        3PY        -0.55155  -0.36293   0.15417  -0.40057   0.28048
  24        3PZ         0.30781  -0.35204   0.20325   0.08641  -0.23367
  25 4   H  1S          0.19682   0.05255   0.03034  -0.69149  -0.09771
  26        2S          0.09069   0.33165   0.19148  -0.31605  -0.07629
  27        3PX        -0.14567  -0.57325  -0.36293   0.69380  -0.06380
  28        3PY        -0.55155   0.36293   0.15417  -0.40057  -0.28048
  29        3PZ         0.30781   0.35204   0.20325   0.08641   0.23367
                          26        27        28        29
                        (E)--V    (A1)--V   (E)--V    (E)--V
     Eigenvalues --     2.69912   2.75243   3.23791   3.23791
   1 1   N  1S          0.00000   0.14488   0.00000   0.00000
   2        2S          0.00000   0.66819   0.00000   0.00000
   3        3S          0.00000   1.22036   0.00000   0.00000
   4        4PX         0.00000   0.00000  -0.67180   0.00000
   5        4PY         0.02689  -0.00000   0.00000   0.67180
   6        4PZ         0.00000   0.37488   0.00000   0.00000
   7        5PX         0.00000   0.00000   1.00378   0.00000
   8        5PY         0.36920  -0.00000   0.00000  -1.00378
   9        5PZ        -0.00000  -0.17633   0.00000  -0.00000
  10        6D 0       -0.00000  -0.99782   0.00000  -0.00000
  11        6D+1        0.00000   0.00000  -0.95617   0.00000
  12        6D-1       -0.75831   0.00000   0.00000   0.95617
  13        6D+2        0.78532  -0.00000   0.00000   0.97261
  14        6D-2        0.00000   0.00000  -0.97261   0.00000
  15 2   H  1S         -0.11283  -0.56278   0.00000   1.14257
  16        2S         -0.08809  -0.20207   0.00000   0.42051
  17        3PX         0.00000   0.00000  -0.04950   0.00000
  18        3PY         0.09814   0.43030   0.00000  -0.92469
  19        3PZ         0.26982  -0.49081   0.00000   0.42271
  20 3   H  1S          0.05641  -0.56278   0.98949  -0.57128
  21        2S          0.04405  -0.20207   0.36417  -0.21026
  22        3PX         0.28048  -0.37265   0.68114  -0.42184
  23        3PY        -0.38767  -0.21515   0.42184  -0.19405
  24        3PZ        -0.13491  -0.49081   0.36608  -0.21136
  25 4   H  1S          0.05641  -0.56278  -0.98949  -0.57128
  26        2S          0.04405  -0.20207  -0.36417  -0.21026
  27        3PX        -0.28048   0.37265   0.68114   0.42184
  28        3PY        -0.38767  -0.21515  -0.42184  -0.19405
  29        3PZ        -0.13491  -0.49081  -0.36608  -0.21136
          Condensed to atoms (all electrons):
               1          2          3          4
     1  N    6.202449   0.347024   0.347024   0.347024
     2  H    0.347024   0.631802  -0.030000  -0.030000
     3  H    0.347024  -0.030000   0.631802  -0.030000
     4  H    0.347024  -0.030000  -0.030000   0.631802
 Mulliken charges:
               1
     1  N   -0.243520
     2  H    0.081173
     3  H    0.081173
     4  H    0.081173
 Sum of Mulliken charges =  -0.00000
 Mulliken charges with hydrogens summed into heavy atoms:
               1
     1  N   -0.000000
 Electronic spatial extent (au):  <R**2>=             26.5541
 Charge=              0.0000 electrons
 Dipole moment (field-independent basis, Debye):
    X=             -0.0000    Y=              0.0000    Z=             -1.7747  Tot=              1.7747
 Quadrupole moment (field-independent basis, Debye-Ang):
   XX=             -6.3070   YY=             -6.3070   ZZ=             -8.5753
   XY=             -0.0000   XZ=              0.0000   YZ=              0.0000
 Traceless Quadrupole moment (field-independent basis, Debye-Ang):
   XX=              0.7561   YY=              0.7561   ZZ=             -1.5122
   XY=             -0.0000   XZ=              0.0000   YZ=              0.0000
 Octapole moment (field-independent basis, Debye-Ang**2):
  XXX=             -0.0000  YYY=              0.6370  ZZZ=             -1.4135  XYY=              0.0000
  XXY=             -0.6370  XXZ=             -0.7118  XZZ=              0.0000  YZZ=              0.0000
  YYZ=             -0.7118  XYZ=              0.0000
 Hexadecapole moment (field-independent basis, Debye-Ang**3):
 XXXX=            -10.2074 YYYY=            -10.2074 ZZZZ=             -9.5899 XXXY=              0.0000
 XXXZ=              0.0000 YYYX=              0.0000 YYYZ=             -0.2965 ZZZX=             -0.0000
 ZZZY=             -0.0000 XXYY=             -3.4025 XXZZ=             -3.3075 YYZZ=             -3.3075
 XXYZ=              0.2965 YYXZ=             -0.0000 ZZXY=              0.0000
 N-N= 1.175589009440D+01 E-N=-1.551585397825D+02  KE= 5.587243098876D+01
 Symmetry A'   KE= 5.328643555212D+01
 Symmetry A"   KE= 2.585995436640D+00
 Orbital energies and kinetic energies (alpha):
                                 1                 2
   1         (A1)--O         -13.968832         21.747835
   2         (A1)--O          -0.754602          1.938217
   3         (E)--O           -0.394817          1.292998
   4         (E)--O           -0.394817          1.292998
   5         (A1)--O          -0.205525          1.664168
   6         (A1)--V           0.031076          0.858603
   7         (E)--V            0.113256          0.957491
   8         (E)--V            0.113256          0.957491
   9         (E)--V            0.471803          1.520386
  10         (E)--V            0.471803          1.520386
  11         (A1)--V           0.596366          2.559063
  12         (A1)--V           0.698385          2.949242
  13         (E)--V            0.790932          2.603517
  14         (E)--V            0.790932          2.603517
  15         (A1)--V           0.893479          2.304033
  16         (E)--V            1.134896          1.991140
  17         (E)--V            1.134896          1.991140
  18         (A2)--V           1.547074          2.294013
  19         (A1)--V           1.592713          2.618886
  20         (E)--V            1.737361          2.476903
  21         (E)--V            1.737361          2.476903
  22         (E)--V            1.991804          3.519007
  23         (E)--V            1.991804          3.519007
  24         (A1)--V           2.390100          4.289224
  25         (E)--V            2.699115          4.067739
  26         (E)--V            2.699115          4.067739
  27         (A1)--V           2.752434          4.579095
  28         (E)--V            3.237905          5.179760
  29         (E)--V            3.237905          5.179760
 Total kinetic energy from orbitals= 5.587243098876D+01
 No NMR shielding tensors so no spin-rotation constants.
 Leave Link  601 at Mon Jan 22 15:05:17 2018, MaxMem=  1048576000 cpu:         0.3
 (Enter /home/chemsoft/gaussian/g09e01/g09/l9999.exe)

 Test job not archived.
 1\1\GINC-LENOX07\FOpt\RPBEPBE\def2SVP/W06\H3N1\MARTIN\22-Jan-2018\0\\#
 P PBEPBE/def2SVP/W06 DenFit opt(MaxCycle=100) scf(xqc,MaxConventionalC
 ycle=500) int(ultrafinegrid) gfinput gfoldprint iop(6/7=3) symmetry(lo
 ose)\\Ammonia DF-PBE/def2-SVP\\0,1\N,-0.0000000001,0.,-0.0928731546\H,
 -0.9383092879,-0.0000000003,0.3342586613\H,0.4691546435,0.81259968,0.3
 342586613\H,0.4691546441,-0.8125996797,0.3342586613\\Version=ES64L-G09
 RevE.01\State=1-A1\HF=-56.4332733\RMSD=8.012e-09\RMSF=6.409e-05\Dipole
 =0.,0.,0.698203\Quadrupole=0.5621277,0.5621277,-1.1242554,0.,0.,0.\PG=
 C03V [C3(N1),3SGV(H1)]\\@


 10 WHATSOEVER THY HAND FINDETH TO DO, DO IT WITH THY  
 MIGHT. FOR THERE IS NO WORK, NOR DEVICE, NOR KNOWLEDGE, NOR  
 WISDOM, IN THE GRAVE, WHITHER THOU GOEST.                    
 11 I RETURNED AND SAW UNDER THE SUN, THAT THE RACE IS NOT TO 
 THE SWIFT, NOR THE BATTLE TO THE STRONG, NEITHER YET BREAD TO
 THE WISE, NOR YET RICHES TO MEN OF UNDERSTANDING, NOR YET    
 FAVOR TO MEN OF SKILL. BUT TIME AND CHANCE HAPPEN TO THEM ALL.
 12 FOR MAN ALSO KNOWETH NOT HIS TIME. AS THE FISHES   
 THAT ARE TAKEN IN AN EVIL NET, AND AS THE BIRDS THAT ARE     
 CAUGHT IN THE SNARE. SO ARE THE SONS OF MEN SNARED IN AN EVIL
 TIME, WHEN IT FALLETH SUDDENLY UPON THEM.
                                         ECCLESIASTES 9
 Job cpu time:       0 days  0 hours  0 minutes 46.7 seconds.
 File lengths (MBytes):  RWF=      5 Int=      0 D2E=      0 Chk=      1 Scr=      1
 Normal termination of Gaussian 09 at Mon Jan 22 15:05:18 2018.
