 Entering Gaussian System, Link 0=g09
 Input=ammonia.df-bp86svp.prop.com
 Output=ammonia.df-bp86svp.prop.log
 Initial command:
 /home/chemsoft/gaussian/g09e01/g09/l1.exe "/scr/martin/g09job.inter1515726872/Gau-5234.inp" -scrdir="/scr/martin/g09job.inter1515726872/"
 Entering Link 1 = /home/chemsoft/gaussian/g09e01/g09/l1.exe PID=      5235.
  
 Copyright (c) 1988,1990,1992,1993,1995,1998,2003,2009,2015,
            Gaussian, Inc.  All Rights Reserved.
  
 This is part of the Gaussian(R) 09 program.  It is based on
 the Gaussian(R) 03 system (copyright 2003, Gaussian, Inc.),
 the Gaussian(R) 98 system (copyright 1998, Gaussian, Inc.),
 the Gaussian(R) 94 system (copyright 1995, Gaussian, Inc.),
 the Gaussian 92(TM) system (copyright 1992, Gaussian, Inc.),
 the Gaussian 90(TM) system (copyright 1990, Gaussian, Inc.),
 the Gaussian 88(TM) system (copyright 1988, Gaussian, Inc.),
 the Gaussian 86(TM) system (copyright 1986, Carnegie Mellon
 University), and the Gaussian 82(TM) system (copyright 1983,
 Carnegie Mellon University). Gaussian is a federally registered
 trademark of Gaussian, Inc.
  
 This software contains proprietary and confidential information,
 including trade secrets, belonging to Gaussian, Inc.
  
 This software is provided under written license and may be
 used, copied, transmitted, or stored only in accord with that
 written license.
  
 The following legend is applicable only to US Government
 contracts under FAR:
  
                    RESTRICTED RIGHTS LEGEND
  
 Use, reproduction and disclosure by the US Government is
 subject to restrictions as set forth in subparagraphs (a)
 and (c) of the Commercial Computer Software - Restricted
 Rights clause in FAR 52.227-19.
  
 Gaussian, Inc.
 340 Quinnipiac St., Bldg. 40, Wallingford CT 06492
  
  
 ---------------------------------------------------------------
 Warning -- This program may not be used in any manner that
 competes with the business of Gaussian, Inc. or will provide
 assistance to any competitor of Gaussian, Inc.  The licensee
 of this program is prohibited from giving any competitor of
 Gaussian, Inc. access to this program.  By using this program,
 the user acknowledges that Gaussian, Inc. is engaged in the
 business of creating and licensing software in the field of
 computational chemistry and represents and warrants to the
 licensee that it is not a competitor of Gaussian, Inc. and that
 it will not use this program in any manner prohibited above.
 ---------------------------------------------------------------
  

 Cite this work as:
 Gaussian 09, Revision E.01,
 M. J. Frisch, G. W. Trucks, H. B. Schlegel, G. E. Scuseria, 
 M. A. Robb, J. R. Cheeseman, G. Scalmani, V. Barone, B. Mennucci, 
 G. A. Petersson, H. Nakatsuji, M. Caricato, X. Li, H. P. Hratchian, 
 A. F. Izmaylov, J. Bloino, G. Zheng, J. L. Sonnenberg, M. Hada, 
 M. Ehara, K. Toyota, R. Fukuda, J. Hasegawa, M. Ishida, T. Nakajima, 
 Y. Honda, O. Kitao, H. Nakai, T. Vreven, J. A. Montgomery, Jr., 
 J. E. Peralta, F. Ogliaro, M. Bearpark, J. J. Heyd, E. Brothers, 
 K. N. Kudin, V. N. Staroverov, T. Keith, R. Kobayashi, J. Normand, 
 K. Raghavachari, A. Rendell, J. C. Burant, S. S. Iyengar, J. Tomasi, 
 M. Cossi, N. Rega, J. M. Millam, M. Klene, J. E. Knox, J. B. Cross, 
 V. Bakken, C. Adamo, J. Jaramillo, R. Gomperts, R. E. Stratmann, 
 O. Yazyev, A. J. Austin, R. Cammi, C. Pomelli, J. W. Ochterski, 
 R. L. Martin, K. Morokuma, V. G. Zakrzewski, G. A. Voth, 
 P. Salvador, J. J. Dannenberg, S. Dapprich, A. D. Daniels, 
 O. Farkas, J. B. Foresman, J. V. Ortiz, J. Cioslowski, 
 and D. J. Fox, Gaussian, Inc., Wallingford CT, 2013.
 
 ******************************************
 Gaussian 09:  ES64L-G09RevE.01 30-Nov-2015
                12-Jan-2018 
 ******************************************
 %chk=ammonia.df-bp86svp.chk
 -------------------------------------------------------------
 #P BP86/def2SVP/W06 geom=allcheck guess(read,only) output=wfx
 -------------------------------------------------------------
 1/29=7,38=1/1;
 2/12=2,40=1/2;
 3/5=43,7=101,11=2,14=-4,16=1,25=1,30=1,74=404,82=40,89=1,116=-2/1,2,3;
 4/5=1/1;
 6/7=3,28=1/1;
 99/5=2,6=200/99;
 Leave Link    1 at Fri Jan 12 12:14:32 2018, MaxMem=           0 cpu:         0.1
 (Enter /home/chemsoft/gaussian/g09e01/g09/l101.exe)
 Structure from the checkpoint file:  "ammonia.df-bp86svp.chk"
 ------------------------
 Ammonia DF-BP86/def2-SVP
 ------------------------
 Charge =  0 Multiplicity = 1
 Redundant internal coordinates found in file.
 N,0,-0.0000000001,0.,-0.092296972
 H,0,-0.9398209777,-0.0000000003,0.3340668373
 H,0,0.4699104884,0.8139088418,0.3340668373
 H,0,0.469910489,-0.8139088415,0.3340668373
 Recover connectivity data from disk.
 NAtoms=      4 NQM=        4 NQMF=       0 NMMI=      0 NMMIF=      0
                NMic=       0 NMicF=      0.
                    Isotopes and Nuclear Properties:
 (Nuclear quadrupole moments (NQMom) in fm**2, nuclear magnetic moments (NMagM)
  in nuclear magnetons)

  Atom         1           2           3           4
 IAtWgt=          14           1           1           1
 AtmWgt=  14.0030740   1.0078250   1.0078250   1.0078250
 NucSpn=           2           1           1           1
 AtZEff=  -4.5500000  -1.0000000  -1.0000000  -1.0000000
 NQMom=    2.0440000   0.0000000   0.0000000   0.0000000
 NMagM=    0.4037610   2.7928460   2.7928460   2.7928460
 AtZNuc=   7.0000000   1.0000000   1.0000000   1.0000000
 Leave Link  101 at Fri Jan 12 12:14:32 2018, MaxMem=    33554432 cpu:         0.1
 (Enter /home/chemsoft/gaussian/g09e01/g09/l202.exe)
                          Input orientation:                          
 ---------------------------------------------------------------------
 Center     Atomic      Atomic             Coordinates (Angstroms)
 Number     Number       Type             X           Y           Z
 ---------------------------------------------------------------------
      1          7           0       -0.000000    0.000000   -0.092297
      2          1           0       -0.939821   -0.000000    0.334067
      3          1           0        0.469910    0.813909    0.334067
      4          1           0        0.469910   -0.813909    0.334067
 ---------------------------------------------------------------------
                    Distance matrix (angstroms):
                    1          2          3          4
     1  N    0.000000
     2  H    1.032012   0.000000
     3  H    1.032012   1.627818   0.000000
     4  H    1.032012   1.627818   1.627818   0.000000
 Stoichiometry    H3N
 Framework group  C3V[C3(N),3SGV(H)]
 Deg. of freedom     2
 Full point group                 C3V     NOp   6
 RotChk:  IX=0 Diff= 2.83D-16
 Largest Abelian subgroup         CS      NOp   2
 Largest concise Abelian subgroup CS      NOp   2
                         Standard orientation:                         
 ---------------------------------------------------------------------
 Center     Atomic      Atomic             Coordinates (Angstroms)
 Number     Number       Type             X           Y           Z
 ---------------------------------------------------------------------
      1          7           0        0.000000    0.000000    0.127909
      2          1           0       -0.000000    0.939821   -0.298455
      3          1           0       -0.813909   -0.469910   -0.298455
      4          1           0        0.813909   -0.469910   -0.298455
 ---------------------------------------------------------------------
 Rotational constants (GHZ):    282.7628954    282.7628954    189.2433071
 Leave Link  202 at Fri Jan 12 12:14:32 2018, MaxMem=    33554432 cpu:         0.0
 (Enter /home/chemsoft/gaussian/g09e01/g09/l301.exe)
 Standard basis: def2SVP (5D, 7F)
 Ernie: Thresh=  0.10000D-02 Tol=  0.10000D-05 Strict=F.
 There are    20 symmetry adapted cartesian basis functions of A'  symmetry.
 There are    10 symmetry adapted cartesian basis functions of A"  symmetry.
 There are    19 symmetry adapted basis functions of A'  symmetry.
 There are    10 symmetry adapted basis functions of A"  symmetry.
    29 basis functions,    46 primitive gaussians,    30 cartesian basis functions
     5 alpha electrons        5 beta electrons
       nuclear repulsion energy        11.7432631128 Hartrees.
 IExCor=  404 DFT=T Ex=B Corr=P86 ExCW=0 ScaHFX=  0.000000
 ScaDFX=  1.000000  1.000000  1.000000  1.000000 ScalE2=  1.000000  1.000000
 IRadAn=      0 IRanWt=     -1 IRanGd=            0 ICorTp=0 IEmpDi=  4
 NAtoms=    4 NActive=    4 NUniq=    2 SFac= 4.00D+00 NAtFMM=   60 NAOKFM=F Big=F
 Integral buffers will be    131072 words long.
 Raffenetti 2 integral format.
 Two-electron integral symmetry is turned on.
 Standard density basis: W06 (5D, 7F)
    82 Density fitting functions
 There are    82 symmetry adapted density basis functions of A   symmetry.
 Leave Link  301 at Fri Jan 12 12:14:32 2018, MaxMem=    33554432 cpu:         0.1
 (Enter /home/chemsoft/gaussian/g09e01/g09/l302.exe)
 NPDir=0 NMtPBC=     1 NCelOv=     1 NCel=       1 NClECP=     1 NCelD=      1
         NCelK=      1 NCelE2=     1 NClLst=     1 CellRange=     0.0.
 One-electron integrals computed using PRISM.
 One-electron integral symmetry used in STVInt
   6 Symmetry operations used in ECPInt.
 ECPInt:  NShTT=     120 NPrTT=     400 LenC2=     121 LenP2D=     394.
 LDataN:  DoStor=T MaxTD1= 4 Len=   56
 NBasis=    29 RedAO= T EigKep=  3.55D-02  NBF=    19    10
 NBsUse=    29 1.00D-06 EigRej= -1.00D+00 NBFU=    19    10
 Precomputing XC quadrature grid using
 IXCGrd= 4 IRadAn=           0 IRanWt=          -1 IRanGd=           0 AccXCQ= 0.00D+00.
 Generated NRdTot=       0 NPtTot=           0 NUsed=           0 NTot=          32
 NSgBfM=    30    30    30    30    30 MxSgAt=     4 MxSgA2=     4.
 Leave Link  302 at Fri Jan 12 12:14:32 2018, MaxMem=    33554432 cpu:         0.3
 (Enter /home/chemsoft/gaussian/g09e01/g09/l303.exe)
 DipDrv:  MaxL=1.
 Leave Link  303 at Fri Jan 12 12:14:32 2018, MaxMem=    33554432 cpu:         0.0
 (Enter /home/chemsoft/gaussian/g09e01/g09/l401.exe)
 Initial guess from the checkpoint file:  "ammonia.df-bp86svp.chk"
 B after Tr=     0.000000    0.000000   -0.000000
         Rot=    1.000000   -0.000000   -0.000000   -0.000000 Ang=   0.00 deg.
 Guess basis will be translated and rotated to current coordinates.
 JPrj=2 DoOrth=T DoCkMO=T.
 Initial guess orbital symmetries:
       Occupied  (A1) (A1) (E) (E) (A1)
       Virtual   (A1) (E) (E) (E) (E) (A1) (A1) (E) (E) (A1) (E)
                 (E) (A2) (A1) (E) (E) (E) (E) (A1) (E) (E) (A1)
                 (E) (E)
 The electronic state of the initial guess is 1-A1.
 Leave Link  401 at Fri Jan 12 12:14:33 2018, MaxMem=    33554432 cpu:         0.2
 (Enter /home/chemsoft/gaussian/g09e01/g09/l601.exe)
 Copying SCF densities to generalized density rwf, IOpCl= 0 IROHF=0.

 **********************************************************************

            Population analysis using the SCF density.

 **********************************************************************

 Orbital symmetries:
       Occupied  (A1) (A1) (E) (E) (A1)
       Virtual   (A1) (E) (E) (E) (E) (A1) (A1) (E) (E) (A1) (E)
                 (E) (A2) (A1) (E) (E) (E) (E) (A1) (E) (E) (A1)
                 (E) (E)
 The electronic state is 1-A1.
 Alpha  occ. eigenvalues --  -13.98933  -0.75778  -0.39843  -0.39843  -0.20952
 Alpha virt. eigenvalues --    0.03502   0.11607   0.11607   0.47154   0.47154
 Alpha virt. eigenvalues --    0.59609   0.69080   0.78684   0.78684   0.88678
 Alpha virt. eigenvalues --    1.13230   1.13230   1.54064   1.58919   1.73216
 Alpha virt. eigenvalues --    1.73216   1.98608   1.98608   2.38158   2.69549
 Alpha virt. eigenvalues --    2.69549   2.74834   3.23250   3.23250
     Molecular Orbital Coefficients:
                           1         2         3         4         5
                        (A1)--O   (A1)--O   (E)--O    (E)--O    (A1)--O
     Eigenvalues --   -13.98933  -0.75778  -0.39843  -0.39843  -0.20952
   1 1   N  1S          0.98824   0.25887   0.00000  -0.00000  -0.10575
   2        2S         -0.04470   0.51931   0.00000  -0.00000  -0.21579
   3        3S          0.01831   0.17291   0.00000   0.00000  -0.34552
   4        4PX         0.00000   0.00000   0.46660   0.00000   0.00000
   5        4PY        -0.00000  -0.00000   0.00000   0.46660   0.00000
   6        4PZ        -0.00394   0.11847   0.00000   0.00000   0.53680
   7        5PX         0.00000   0.00000  -0.19480   0.00000   0.00000
   8        5PY        -0.00000  -0.00000   0.00000  -0.19480  -0.00000
   9        5PZ        -0.00050  -0.00834   0.00000  -0.00000  -0.42980
  10        6D 0        0.00127  -0.00153   0.00000   0.00000   0.02213
  11        6D+1        0.00000   0.00000   0.02195   0.00000   0.00000
  12        6D-1        0.00000  -0.00000   0.00000   0.02195   0.00000
  13        6D+2       -0.00000  -0.00000   0.00000   0.00904   0.00000
  14        6D-2        0.00000   0.00000   0.00904   0.00000   0.00000
  15 2   H  1S          0.00331   0.19360   0.00000  -0.37417   0.09342
  16        2S         -0.00293   0.02468   0.00000  -0.15565   0.06236
  17        3PX         0.00000   0.00000  -0.02191   0.00000   0.00000
  18        3PY        -0.00332  -0.02597   0.00000   0.01491  -0.00936
  19        3PZ         0.00150   0.00402   0.00000  -0.01092  -0.02252
  20 3   H  1S          0.00331   0.19360   0.32404   0.18709   0.09342
  21        2S         -0.00293   0.02468   0.13480   0.07782   0.06236
  22        3PX         0.00288   0.02249   0.00571   0.01594   0.00811
  23        3PY         0.00166   0.01299   0.01594  -0.01270   0.00468
  24        3PZ         0.00150   0.00402   0.00946   0.00546  -0.02252
  25 4   H  1S          0.00331   0.19360  -0.32404   0.18709   0.09342
  26        2S         -0.00293   0.02468  -0.13480   0.07782   0.06236
  27        3PX        -0.00288  -0.02249   0.00571  -0.01594  -0.00811
  28        3PY         0.00166   0.01299  -0.01594  -0.01270   0.00468
  29        3PZ         0.00150   0.00402  -0.00946   0.00546  -0.02252
                           6         7         8         9        10
                        (A1)--V   (E)--V    (E)--V    (E)--V    (E)--V
     Eigenvalues --     0.03502   0.11607   0.11607   0.47154   0.47154
   1 1   N  1S          0.13184   0.00000   0.00000   0.00000   0.00000
   2        2S          0.24282   0.00000   0.00000   0.00000   0.00000
   3        3S          1.37896   0.00000  -0.00000   0.00000  -0.00000
   4        4PX         0.00000  -0.41156   0.00000  -0.13529   0.00000
   5        4PY        -0.00000   0.00000   0.41156   0.00000   0.13529
   6        4PZ         0.21057   0.00000   0.00000   0.00000   0.00000
   7        5PX         0.00000   0.76299   0.00000   0.52012   0.00000
   8        5PY         0.00000   0.00000  -0.76299   0.00000  -0.52012
   9        5PZ        -0.34980   0.00000   0.00000   0.00000   0.00000
  10        6D 0        0.00608   0.00000   0.00000   0.00000  -0.00000
  11        6D+1        0.00000  -0.00706   0.00000   0.06638   0.00000
  12        6D-1        0.00000   0.00000   0.00706   0.00000  -0.06638
  13        6D+2       -0.00000   0.00000  -0.00918   0.00000  -0.09126
  14        6D-2        0.00000   0.00918   0.00000   0.09126   0.00000
  15 2   H  1S         -0.09225   0.00000   0.15650   0.00000   1.06531
  16        2S         -0.74351   0.00000   1.51091   0.00000  -0.84296
  17        3PX         0.00000   0.00856   0.00000   0.09038   0.00000
  18        3PY        -0.01043   0.00000   0.01090   0.00000   0.04728
  19        3PZ         0.00243   0.00000  -0.00958   0.00000  -0.04928
  20 3   H  1S         -0.09225   0.13554  -0.07825   0.92259  -0.53265
  21        2S         -0.74351   1.30849  -0.75546  -0.73003   0.42148
  22        3PX         0.00904  -0.00604   0.00843  -0.01287   0.05961
  23        3PY         0.00522  -0.00843  -0.00369  -0.05961  -0.05597
  24        3PZ         0.00243  -0.00829   0.00479  -0.04268   0.02464
  25 4   H  1S         -0.09225  -0.13554  -0.07825  -0.92259  -0.53265
  26        2S         -0.74351  -1.30849  -0.75546   0.73003   0.42148
  27        3PX        -0.00904  -0.00604  -0.00843  -0.01287  -0.05961
  28        3PY         0.00522   0.00843  -0.00369   0.05961  -0.05597
  29        3PZ         0.00243   0.00829   0.00479   0.04268   0.02464
                          11        12        13        14        15
                        (A1)--V   (A1)--V   (E)--V    (E)--V    (A1)--V
     Eigenvalues --     0.59609   0.69080   0.78684   0.78684   0.88678
   1 1   N  1S         -0.17469  -0.16771   0.00000  -0.00000  -0.18345
   2        2S         -0.80927  -0.84255   0.00000  -0.00000  -1.51091
   3        3S          1.30323   0.77882   0.00000   0.00000   3.60320
   4        4PX         0.00000   0.00000   0.89346   0.00000   0.00000
   5        4PY        -0.00000  -0.00000   0.00000   0.89346  -0.00000
   6        4PZ        -0.40274   0.84644   0.00000   0.00000  -0.24394
   7        5PX         0.00000   0.00000   1.73659   0.00000   0.00000
   8        5PY        -0.00000  -0.00000   0.00000   1.73659  -0.00000
   9        5PZ        -0.31449   0.96063   0.00000  -0.00000  -0.91828
  10        6D 0       -0.07486  -0.00047   0.00000  -0.00000   0.09906
  11        6D+1        0.00000   0.00000  -0.03473   0.00000   0.00000
  12        6D-1        0.00000   0.00000   0.00000  -0.03473  -0.00000
  13        6D+2       -0.00000  -0.00000   0.00000  -0.03774  -0.00000
  14        6D-2        0.00000   0.00000  -0.03774   0.00000   0.00000
  15 2   H  1S          0.57964   0.17026   0.00000  -0.06065  -0.65101
  16        2S         -0.64466  -0.12344   0.00000  -1.26268  -0.55618
  17        3PX         0.00000   0.00000   0.00653   0.00000   0.00000
  18        3PY         0.17163  -0.01210   0.00000   0.19914  -0.00854
  19        3PZ         0.00299   0.01141   0.00000  -0.09696  -0.16532
  20 3   H  1S          0.57964   0.17026   0.05252   0.03032  -0.65101
  21        2S         -0.64466  -0.12344   1.09352   0.63134  -0.55618
  22        3PX        -0.14864   0.01048   0.15099   0.08340   0.00740
  23        3PY        -0.08582   0.00605   0.08340   0.05468   0.00427
  24        3PZ         0.00299   0.01141   0.08397   0.04848  -0.16532
  25 4   H  1S          0.57964   0.17026  -0.05252   0.03032  -0.65101
  26        2S         -0.64466  -0.12344  -1.09352   0.63134  -0.55618
  27        3PX         0.14864  -0.01048   0.15099  -0.08340  -0.00740
  28        3PY        -0.08582   0.00605  -0.08340   0.05468   0.00427
  29        3PZ         0.00299   0.01141  -0.08397   0.04848  -0.16532
                          16        17        18        19        20
                        (E)--V    (E)--V    (A2)--V   (A1)--V   (E)--V
     Eigenvalues --     1.13230   1.13230   1.54064   1.58919   1.73216
   1 1   N  1S          0.00000  -0.00000   0.00000  -0.09209   0.00000
   2        2S          0.00000  -0.00000   0.00000  -0.86378   0.00000
   3        3S          0.00000   0.00000   0.00000   1.81196   0.00000
   4        4PX         0.01729   0.00000  -0.00000   0.00000   0.00708
   5        4PY         0.00000  -0.01729   0.00000  -0.00000   0.00000
   6        4PZ         0.00000   0.00000   0.00000  -0.10094   0.00000
   7        5PX        -0.33844   0.00000  -0.00000   0.00000   0.92396
   8        5PY         0.00000   0.33844   0.00000  -0.00000   0.00000
   9        5PZ         0.00000   0.00000   0.00000  -1.06022   0.00000
  10        6D 0        0.00000   0.00000   0.00000  -0.30589   0.00000
  11        6D+1       -0.19671   0.00000   0.00000   0.00000   0.09967
  12        6D-1        0.00000   0.19671   0.00000   0.00000   0.00000
  13        6D+2        0.00000  -0.16170   0.00000   0.00000   0.00000
  14        6D-2        0.16170   0.00000   0.00000   0.00000  -0.05423
  15 2   H  1S          0.00000  -0.16010   0.00000  -0.53458   0.00000
  16        2S          0.00000  -0.05933   0.00000  -0.19492   0.00000
  17        3PX         0.49067   0.00000   0.61153   0.00000  -0.63693
  18        3PY         0.00000   0.21698   0.00000   0.07047   0.00000
  19        3PZ         0.00000   0.44572   0.00000   0.51950   0.00000
  20 3   H  1S         -0.13865   0.08005  -0.00000  -0.53458   0.34165
  21        2S         -0.05138   0.02966   0.00000  -0.19492   0.15587
  22        3PX        -0.04007   0.30642  -0.30576  -0.06103  -0.38387
  23        3PY        -0.30642  -0.31375   0.52960  -0.03523   0.14610
  24        3PZ         0.38600  -0.22286  -0.00000   0.51950   0.53098
  25 4   H  1S          0.13865   0.08005   0.00000  -0.53458  -0.34165
  26        2S          0.05138   0.02966  -0.00000  -0.19492  -0.15587
  27        3PX        -0.04007  -0.30642  -0.30576   0.06103  -0.38387
  28        3PY         0.30642  -0.31375  -0.52960  -0.03523  -0.14610
  29        3PZ        -0.38600  -0.22286   0.00000   0.51950  -0.53098
                          21        22        23        24        25
                        (E)--V    (E)--V    (E)--V    (A1)--V   (E)--V
     Eigenvalues --     1.73216   1.98608   1.98608   2.38158   2.69549
   1 1   N  1S          0.00000   0.00000   0.00000   0.16656   0.00000
   2        2S          0.00000   0.00000   0.00000   0.69389   0.00000
   3        3S         -0.00000   0.00000   0.00000   1.73048   0.00000
   4        4PX         0.00000   0.67941   0.00000   0.00000   0.02667
   5        4PY         0.00708   0.00000  -0.67941   0.00000   0.00000
   6        4PZ         0.00000   0.00000   0.00000   0.47573   0.00000
   7        5PX         0.00000  -0.04615   0.00000   0.00000   0.36843
   8        5PY         0.92396   0.00000   0.04615   0.00000   0.00000
   9        5PZ        -0.00000   0.00000  -0.00000  -0.87831   0.00000
  10        6D 0       -0.00000   0.00000   0.00000   0.40723   0.00000
  11        6D+1        0.00000  -0.19784   0.00000   0.00000  -0.75892
  12        6D-1        0.09967   0.00000   0.19784  -0.00000   0.00000
  13        6D+2       -0.05423   0.00000   0.21681  -0.00000   0.00000
  14        6D-2        0.00000  -0.21681   0.00000   0.00000   0.78416
  15 2   H  1S         -0.39450   0.00000  -0.06275  -0.68901   0.00000
  16        2S         -0.17998   0.00000  -0.38968  -0.31824   0.00000
  17        3PX         0.00000   0.05737   0.00000   0.00000  -0.54780
  18        3PY        -0.29951   0.00000   0.78348   0.80151   0.00000
  19        3PZ        -0.61313   0.00000  -0.40810   0.08612   0.00000
  20 3   H  1S          0.19725  -0.05434   0.03137  -0.68901   0.09771
  21        2S          0.08999  -0.33747   0.19484  -0.31824   0.07630
  22        3PX         0.14610  -0.57326   0.36410  -0.69413  -0.06303
  23        3PY        -0.55258  -0.36410   0.15284  -0.40075   0.27989
  24        3PZ         0.30656  -0.35343   0.20405   0.08612  -0.23329
  25 4   H  1S          0.19725   0.05434   0.03137  -0.68901  -0.09771
  26        2S          0.08999   0.33747   0.19484  -0.31824  -0.07630
  27        3PX        -0.14610  -0.57326  -0.36410   0.69413  -0.06303
  28        3PY        -0.55258   0.36410   0.15284  -0.40075  -0.27989
  29        3PZ         0.30656   0.35343   0.20405   0.08612   0.23329
                          26        27        28        29
                        (E)--V    (A1)--V   (E)--V    (E)--V
     Eigenvalues --     2.69549   2.74834   3.23250   3.23250
   1 1   N  1S          0.00000   0.14372   0.00000  -0.00000
   2        2S          0.00000   0.65851   0.00000  -0.00000
   3        3S          0.00000   1.22529   0.00000   0.00000
   4        4PX         0.00000   0.00000  -0.66694   0.00000
   5        4PY         0.02667   0.00000   0.00000   0.66694
   6        4PZ         0.00000   0.37123   0.00000  -0.00000
   7        5PX         0.00000   0.00000   1.00459   0.00000
   8        5PY         0.36843  -0.00000   0.00000  -1.00459
   9        5PZ        -0.00000  -0.17754   0.00000  -0.00000
  10        6D 0       -0.00000  -0.99991   0.00000   0.00000
  11        6D+1        0.00000   0.00000  -0.95413   0.00000
  12        6D-1       -0.75892   0.00000   0.00000   0.95413
  13        6D+2        0.78416  -0.00000   0.00000   0.97367
  14        6D-2        0.00000   0.00000  -0.97367   0.00000
  15 2   H  1S         -0.11283  -0.56136   0.00000   1.13843
  16        2S         -0.08810  -0.20334   0.00000   0.42163
  17        3PX         0.00000   0.00000  -0.04962   0.00000
  18        3PY         0.09857   0.42949   0.00000  -0.92263
  19        3PZ         0.26938  -0.48817   0.00000   0.42033
  20 3   H  1S          0.05641  -0.56136   0.98591  -0.56922
  21        2S          0.04405  -0.20334   0.36514  -0.21081
  22        3PX         0.27989  -0.37195   0.67957  -0.42100
  23        3PY        -0.38621  -0.21474   0.42100  -0.19344
  24        3PZ        -0.13469  -0.48817   0.36402  -0.21017
  25 4   H  1S          0.05641  -0.56136  -0.98591  -0.56922
  26        2S          0.04405  -0.20334  -0.36514  -0.21081
  27        3PX        -0.27989   0.37195   0.67957   0.42100
  28        3PY        -0.38621  -0.21474  -0.42100  -0.19344
  29        3PZ        -0.13469  -0.48817  -0.36402  -0.21017
     Density Matrix:
                           1         2         3         4         5
   1 1   N  1S          2.10962
   2        2S          0.22615   0.63649
   3        3S          0.19878   0.32706   0.29923
   4        4PX         0.00000   0.00000   0.00000   0.43543
   5        4PY        -0.00000  -0.00000   0.00000   0.00000   0.43543
   6        4PZ        -0.05997  -0.10827  -0.33012   0.00000   0.00000
   7        5PX         0.00000   0.00000   0.00000  -0.18179   0.00000
   8        5PY        -0.00000  -0.00000  -0.00000   0.00000  -0.18179
   9        5PZ         0.08560   0.17687   0.29410   0.00000  -0.00000
  10        6D 0       -0.00297  -0.01125  -0.01577   0.00000   0.00000
  11        6D+1        0.00000   0.00000   0.00000   0.02048   0.00000
  12        6D-1        0.00000  -0.00000  -0.00000   0.00000   0.02048
  13        6D+2       -0.00000  -0.00000  -0.00000   0.00000   0.00844
  14        6D-2        0.00000   0.00000   0.00000   0.00844   0.00000
  15 2   H  1S          0.08702   0.16046   0.00251   0.00000  -0.34918
  16        2S         -0.00619  -0.00102  -0.03467   0.00000  -0.14525
  17        3PX         0.00000   0.00000   0.00000  -0.02044   0.00000
  18        3PY        -0.01803  -0.02264  -0.00263   0.00000   0.01392
  19        3PZ         0.00981   0.01376   0.01701   0.00000  -0.01019
  20 3   H  1S          0.08702   0.16046   0.00251   0.30240   0.17459
  21        2S         -0.00619  -0.00102  -0.03467   0.12579   0.07263
  22        3PX         0.01562   0.01961   0.00228   0.00533   0.01488
  23        3PY         0.00902   0.01132   0.00132   0.01488  -0.01185
  24        3PZ         0.00981   0.01376   0.01701   0.00883   0.00510
  25 4   H  1S          0.08702   0.16046   0.00251  -0.30240   0.17459
  26        2S         -0.00619  -0.00102  -0.03467  -0.12579   0.07263
  27        3PX        -0.01562  -0.01961  -0.00228   0.00533  -0.01488
  28        3PY         0.00902   0.01132   0.00132  -0.01488  -0.01185
  29        3PZ         0.00981   0.01376   0.01701  -0.00883   0.00510
                           6         7         8         9        10
   6        4PZ         0.60440
   7        5PX         0.00000   0.07589
   8        5PY        -0.00000   0.00000   0.07589
   9        5PZ        -0.46340   0.00000   0.00000   0.36959
  10        6D 0        0.02338   0.00000  -0.00000  -0.01900   0.00099
  11        6D+1        0.00000  -0.00855   0.00000   0.00000   0.00000
  12        6D-1        0.00000   0.00000  -0.00855  -0.00000   0.00000
  13        6D+2        0.00000   0.00000  -0.00352  -0.00000   0.00000
  14        6D-2        0.00000  -0.00352   0.00000   0.00000   0.00000
  15 2   H  1S          0.14614   0.00000   0.14578  -0.08354   0.00355
  16        2S          0.07282   0.00000   0.06064  -0.05401   0.00268
  17        3PX         0.00000   0.00853   0.00000   0.00000   0.00000
  18        3PY        -0.01618   0.00000  -0.00581   0.00848  -0.00034
  19        3PZ        -0.02323   0.00000   0.00425   0.01929  -0.00101
  20 3   H  1S          0.14614  -0.12625  -0.07289  -0.08354   0.00355
  21        2S          0.07282  -0.05252  -0.03032  -0.05401   0.00268
  22        3PX         0.01401  -0.00222  -0.00621  -0.00735   0.00030
  23        3PY         0.00809  -0.00621   0.00495  -0.00424   0.00017
  24        3PZ        -0.02323  -0.00368  -0.00213   0.01929  -0.00101
  25 4   H  1S          0.14614   0.12625  -0.07289  -0.08354   0.00355
  26        2S          0.07282   0.05252  -0.03032  -0.05401   0.00268
  27        3PX        -0.01401  -0.00222   0.00621   0.00735  -0.00030
  28        3PY         0.00809   0.00621   0.00495  -0.00424   0.00017
  29        3PZ        -0.02323   0.00368  -0.00213   0.01929  -0.00101
                          11        12        13        14        15
  11        6D+1        0.00096
  12        6D-1        0.00000   0.00096
  13        6D+2        0.00000   0.00040   0.00016
  14        6D-2        0.00040   0.00000   0.00000   0.00016
  15 2   H  1S          0.00000  -0.01642  -0.00677   0.00000   0.37245
  16        2S          0.00000  -0.00683  -0.00282   0.00000   0.13767
  17        3PX        -0.00096   0.00000   0.00000  -0.00040   0.00000
  18        3PY         0.00000   0.00065   0.00027   0.00000  -0.02299
  19        3PZ         0.00000  -0.00048  -0.00020   0.00000   0.00553
  20 3   H  1S          0.01422   0.00821   0.00338   0.00586  -0.04757
  21        2S          0.00592   0.00342   0.00141   0.00244  -0.03705
  22        3PX         0.00025   0.00070   0.00029   0.00010  -0.00169
  23        3PY         0.00070  -0.00056  -0.00023   0.00029   0.01542
  24        3PZ         0.00042   0.00024   0.00010   0.00017  -0.00673
  25 4   H  1S         -0.01422   0.00821   0.00338  -0.00586  -0.04757
  26        2S         -0.00592   0.00342   0.00141  -0.00244  -0.03705
  27        3PX         0.00025  -0.00070  -0.00029   0.00010   0.00169
  28        3PY        -0.00070  -0.00056  -0.00023  -0.00029   0.01542
  29        3PZ        -0.00042   0.00024   0.00010  -0.00017  -0.00673
                          16        17        18        19        20
  16        2S          0.05747
  17        3PX         0.00000   0.00096
  18        3PY        -0.00707   0.00000   0.00199
  19        3PZ         0.00078   0.00000  -0.00012   0.00129
  20 3   H  1S         -0.03705  -0.01420  -0.00625  -0.00673   0.37245
  21        2S         -0.01521  -0.00591  -0.00011  -0.00432   0.13767
  22        3PX        -0.00286  -0.00025  -0.00086  -0.00052   0.01991
  23        3PY         0.00517  -0.00070  -0.00115   0.00018   0.01149
  24        3PZ        -0.00432  -0.00041   0.00037   0.00093   0.00553
  25 4   H  1S         -0.03705   0.01420  -0.00625  -0.00673  -0.04757
  26        2S         -0.01521   0.00591  -0.00011  -0.00432  -0.03705
  27        3PX         0.00286  -0.00025   0.00086   0.00052  -0.01251
  28        3PY         0.00517   0.00070  -0.00115   0.00018  -0.00917
  29        3PZ        -0.00432   0.00041   0.00037   0.00093  -0.00673
                          21        22        23        24        25
  21        2S          0.05747
  22        3PX         0.00613   0.00173
  23        3PY         0.00354   0.00045   0.00122
  24        3PZ         0.00078   0.00011   0.00006   0.00129
  25 4   H  1S         -0.03705   0.01251  -0.00917  -0.00673   0.37245
  26        2S         -0.01521   0.00305  -0.00506  -0.00432   0.13767
  27        3PX        -0.00305  -0.00160  -0.00008   0.00011  -0.01991
  28        3PY        -0.00506   0.00008   0.00020  -0.00054   0.01149
  29        3PZ        -0.00432  -0.00011  -0.00054   0.00093   0.00553
                          26        27        28        29
  26        2S          0.05747
  27        3PX        -0.00613   0.00173
  28        3PY         0.00354  -0.00045   0.00122
  29        3PZ         0.00078  -0.00011   0.00006   0.00129
    Full Mulliken population analysis:
                           1         2         3         4         5
   1 1   N  1S          2.10962
   2        2S         -0.07595   0.63649
   3        3S         -0.03084   0.25937   0.29923
   4        4PX         0.00000   0.00000   0.00000   0.43543
   5        4PY         0.00000   0.00000   0.00000   0.00000   0.43543
   6        4PZ         0.00000   0.00000   0.00000   0.00000   0.00000
   7        5PX         0.00000   0.00000   0.00000   0.09510   0.00000
   8        5PY         0.00000   0.00000   0.00000   0.00000   0.09510
   9        5PZ         0.00000   0.00000   0.00000   0.00000   0.00000
  10        6D 0        0.00000  -0.00000  -0.00000   0.00000   0.00000
  11        6D+1        0.00000   0.00000   0.00000   0.00000   0.00000
  12        6D-1        0.00000   0.00000   0.00000   0.00000   0.00000
  13        6D+2        0.00000   0.00000   0.00000   0.00000   0.00000
  14        6D-2        0.00000   0.00000   0.00000   0.00000   0.00000
  15 2   H  1S         -0.00411   0.05454   0.00122   0.00000   0.10163
  16        2S          0.00045  -0.00045  -0.02528   0.00000   0.01899
  17        3PX         0.00000   0.00000   0.00000   0.00374   0.00000
  18        3PY        -0.00136   0.00825   0.00062   0.00000   0.00425
  19        3PZ        -0.00034   0.00227   0.00182   0.00000   0.00226
  20 3   H  1S         -0.00411   0.05454   0.00122   0.07622   0.02541
  21        2S          0.00045  -0.00045  -0.02528   0.01424   0.00475
  22        3PX        -0.00102   0.00619   0.00046   0.00098   0.00315
  23        3PY        -0.00034   0.00206   0.00015   0.00315   0.00072
  24        3PZ        -0.00034   0.00227   0.00182   0.00169   0.00056
  25 4   H  1S         -0.00411   0.05454   0.00122   0.07622   0.02541
  26        2S          0.00045  -0.00045  -0.02528   0.01424   0.00475
  27        3PX        -0.00102   0.00619   0.00046   0.00098   0.00315
  28        3PY        -0.00034   0.00206   0.00015   0.00315   0.00072
  29        3PZ        -0.00034   0.00227   0.00182   0.00169   0.00056
                           6         7         8         9        10
   6        4PZ         0.60440
   7        5PX         0.00000   0.07589
   8        5PY         0.00000   0.00000   0.07589
   9        5PZ         0.24242   0.00000   0.00000   0.36959
  10        6D 0        0.00000   0.00000   0.00000   0.00000   0.00099
  11        6D+1        0.00000   0.00000   0.00000   0.00000   0.00000
  12        6D-1        0.00000   0.00000   0.00000   0.00000   0.00000
  13        6D+2        0.00000   0.00000   0.00000   0.00000   0.00000
  14        6D-2        0.00000   0.00000   0.00000   0.00000   0.00000
  15 2   H  1S          0.01930   0.00000   0.08070   0.02098  -0.00022
  16        2S          0.00432   0.00000   0.02509   0.01014  -0.00002
  17        3PX         0.00000   0.00272   0.00000   0.00000   0.00000
  18        3PY         0.00359   0.00000   0.00016   0.00133   0.00001
  19        3PZ         0.00192   0.00000   0.00067   0.00477   0.00021
  20 3   H  1S          0.01930   0.06053   0.02018   0.02098  -0.00022
  21        2S          0.00432   0.01882   0.00627   0.01014  -0.00002
  22        3PX         0.00269  -0.00013   0.00093   0.00100   0.00001
  23        3PY         0.00090   0.00093   0.00115   0.00033   0.00000
  24        3PZ         0.00192   0.00050   0.00017   0.00477   0.00021
  25 4   H  1S          0.01930   0.06053   0.02018   0.02098  -0.00022
  26        2S          0.00432   0.01882   0.00627   0.01014  -0.00002
  27        3PX         0.00269  -0.00013   0.00093   0.00100   0.00001
  28        3PY         0.00090   0.00093   0.00115   0.00033   0.00000
  29        3PZ         0.00192   0.00050   0.00017   0.00477   0.00021
                          11        12        13        14        15
  11        6D+1        0.00096
  12        6D-1        0.00000   0.00096
  13        6D+2        0.00000   0.00000   0.00016
  14        6D-2        0.00000   0.00000   0.00000   0.00016
  15 2   H  1S          0.00000   0.00274   0.00124   0.00000   0.37245
  16        2S          0.00000   0.00015   0.00007   0.00000   0.09428
  17        3PX         0.00013   0.00000   0.00000  -0.00011   0.00000
  18        3PY         0.00000   0.00015   0.00003   0.00000   0.00000
  19        3PZ         0.00000  -0.00006   0.00004   0.00000   0.00000
  20 3   H  1S          0.00205   0.00068   0.00031   0.00093  -0.00426
  21        2S          0.00011   0.00004   0.00002   0.00005  -0.01006
  22        3PX         0.00004   0.00011  -0.00002   0.00002  -0.00009
  23        3PY         0.00011   0.00002  -0.00006  -0.00002   0.00139
  24        3PZ        -0.00004  -0.00001   0.00001   0.00003   0.00000
  25 4   H  1S          0.00205   0.00068   0.00031   0.00093  -0.00426
  26        2S          0.00011   0.00004   0.00002   0.00005  -0.01006
  27        3PX         0.00004   0.00011  -0.00002   0.00002  -0.00009
  28        3PY         0.00011   0.00002  -0.00006  -0.00002   0.00139
  29        3PZ        -0.00004  -0.00001   0.00001   0.00003   0.00000
                          16        17        18        19        20
  16        2S          0.05747
  17        3PX         0.00000   0.00096
  18        3PY         0.00000   0.00000   0.00199
  19        3PZ         0.00000   0.00000   0.00000   0.00129
  20 3   H  1S         -0.01006   0.00074   0.00056   0.00000   0.37245
  21        2S         -0.00854   0.00044   0.00001   0.00000   0.09428
  22        3PX        -0.00021   0.00001   0.00006   0.00000   0.00000
  23        3PY         0.00067   0.00005   0.00012   0.00000   0.00000
  24        3PZ         0.00000   0.00000   0.00000   0.00002   0.00000
  25 4   H  1S         -0.01006   0.00074   0.00056   0.00000  -0.00426
  26        2S         -0.00854   0.00044   0.00001   0.00000  -0.01006
  27        3PX        -0.00021   0.00001   0.00006   0.00000   0.00130
  28        3PY         0.00067   0.00005   0.00012   0.00000  -0.00000
  29        3PZ         0.00000   0.00000   0.00000   0.00002   0.00000
                          21        22        23        24        25
  21        2S          0.05747
  22        3PX         0.00000   0.00173
  23        3PY         0.00000   0.00000   0.00122
  24        3PZ         0.00000   0.00000   0.00000   0.00129
  25 4   H  1S         -0.01006   0.00130  -0.00000   0.00000   0.37245
  26        2S         -0.00854   0.00045  -0.00000   0.00000   0.09428
  27        3PX         0.00045   0.00024   0.00000   0.00000   0.00000
  28        3PY        -0.00000  -0.00000   0.00000   0.00000   0.00000
  29        3PZ         0.00000   0.00000   0.00000   0.00002   0.00000
                          26        27        28        29
  26        2S          0.05747
  27        3PX         0.00000   0.00173
  28        3PY         0.00000   0.00000   0.00122
  29        3PZ         0.00000   0.00000   0.00000   0.00129
     Gross orbital populations:
                           1
   1 1   N  1S          1.98675
   2        2S          1.01374
   3        3S          0.46287
   4        4PX         0.72684
   5        4PY         0.72684
   6        4PZ         0.93418
   7        5PX         0.33500
   8        5PY         0.33500
   9        5PZ         0.72366
  10        6D 0        0.00093
  11        6D+1        0.00563
  12        6D-1        0.00563
  13        6D+2        0.00206
  14        6D-2        0.00206
  15 2   H  1S          0.71871
  16        2S          0.14889
  17        3PX         0.00990
  18        3PY         0.02055
  19        3PZ         0.01489
  20 3   H  1S          0.71871
  21        2S          0.14889
  22        3PX         0.01789
  23        3PY         0.01257
  24        3PZ         0.01489
  25 4   H  1S          0.71871
  26        2S          0.14889
  27        3PX         0.01789
  28        3PY         0.01257
  29        3PZ         0.01489
          Condensed to atoms (all electrons):
               1          2          3          4
     1  N    6.215619   0.348523   0.348523   0.348523
     2  H    0.348523   0.622709  -0.029147  -0.029147
     3  H    0.348523  -0.029147   0.622709  -0.029147
     4  H    0.348523  -0.029147  -0.029147   0.622709
 Mulliken charges:
               1
     1  N   -0.261187
     2  H    0.087062
     3  H    0.087062
     4  H    0.087062
 Sum of Mulliken charges =  -0.00000
 Mulliken charges with hydrogens summed into heavy atoms:
               1
     1  N   -0.000000
 Electronic spatial extent (au):  <R**2>=             26.5570
 Charge=             -0.0000 electrons
 Dipole moment (field-independent basis, Debye):
    X=             -0.0000    Y=             -0.0000    Z=             -1.7828  Tot=              1.7828
 Quadrupole moment (field-independent basis, Debye-Ang):
   XX=             -6.2915   YY=             -6.2915   ZZ=             -8.5759
   XY=             -0.0000   XZ=              0.0000   YZ=              0.0000
 Traceless Quadrupole moment (field-independent basis, Debye-Ang):
   XX=              0.7615   YY=              0.7615   ZZ=             -1.5229
   XY=             -0.0000   XZ=              0.0000   YZ=              0.0000
 Octapole moment (field-independent basis, Debye-Ang**2):
  XXX=              0.0000  YYY=              0.6441  ZZZ=             -1.4394  XYY=              0.0000
  XXY=             -0.6441  XXZ=             -0.7232  XZZ=              0.0000  YZZ=             -0.0000
  YYZ=             -0.7232  XYZ=              0.0000
 Hexadecapole moment (field-independent basis, Debye-Ang**3):
 XXXX=            -10.1442 YYYY=            -10.1442 ZZZZ=             -9.5682 XXXY=              0.0000
 XXXZ=              0.0000 YYYX=              0.0000 YYYZ=             -0.2973 ZZZX=             -0.0000
 ZZZY=              0.0000 XXYY=             -3.3814 XXZZ=             -3.2952 YYZZ=             -3.2952
 XXYZ=              0.2973 YYXZ=             -0.0000 ZZXY=              0.0000
 N-N= 1.174326311284D+01 E-N=-1.551449437190D+02  KE= 5.587959398280D+01
 Symmetry A'   KE= 5.329466043790D+01
 Symmetry A"   KE= 2.584933544897D+00
 Orbital energies and kinetic energies (alpha):
                                 1                 2
   1         (A1)--O         -13.989327         21.754521
   2         (A1)--O          -0.757776          1.938030
   3         (E)--O           -0.398431          1.292467
   4         (E)--O           -0.398431          1.292467
   5         (A1)--O          -0.209520          1.662312
   6         (A1)--V           0.035023          0.896924
   7         (E)--V            0.116071          0.987049
   8         (E)--V            0.116071          0.987049
   9         (E)--V            0.471536          1.495333
  10         (E)--V            0.471536          1.495333
  11         (A1)--V           0.596093          2.516237
  12         (A1)--V           0.690799          2.949720
  13         (E)--V            0.786838          2.602277
  14         (E)--V            0.786838          2.602277
  15         (A1)--V           0.886778          2.309504
  16         (E)--V            1.132297          1.990321
  17         (E)--V            1.132297          1.990321
  18         (A2)--V           1.540637          2.291990
  19         (A1)--V           1.589194          2.616660
  20         (E)--V            1.732164          2.475135
  21         (E)--V            1.732164          2.475135
  22         (E)--V            1.986085          3.515203
  23         (E)--V            1.986085          3.515203
  24         (A1)--V           2.381577          4.278436
  25         (E)--V            2.695493          4.067449
  26         (E)--V            2.695493          4.067449
  27         (A1)--V           2.748336          4.571916
  28         (E)--V            3.232504          5.172828
  29         (E)--V            3.232504          5.172828
 Total kinetic energy from orbitals= 5.587959398280D+01
 No NMR shielding tensors so no spin-rotation constants.
 Leave Link  601 at Fri Jan 12 12:14:33 2018, MaxMem=    33554432 cpu:         0.2
 (Enter /home/chemsoft/gaussian/g09e01/g09/l9999.exe)

 This type of calculation cannot be archived.

 Writing a WFNX file to "ammonia.df-bp86svp.wfx"


 WHEN ALL ELSE FAILS, LOOK AT THE SCHRODINGER EQUATION.
     -- RUSSELL T. PACK, APRIL 1978
 Job cpu time:       0 days  0 hours  0 minutes  1.3 seconds.
 File lengths (MBytes):  RWF=      5 Int=      0 D2E=      0 Chk=      1 Scr=      1
 Normal termination of Gaussian 09 at Fri Jan 12 12:14:33 2018.
